REMARK  3 active torsions:
REMARK  status: ('A' for Active; 'I' for Inactive)
REMARK    1  A    between atoms: N_3  and  C_11 
REMARK    2  A    between atoms: C_4  and  C_5 
REMARK    3  A    between atoms: C_7  and  C_11 
ROOT
ATOM      1  S   UNK     0       3.931   2.617   0.232  1.00  0.00    -0.060 SA
ATOM      2  C   UNK     0       5.430   1.883   0.078  1.00  0.00     0.104 C 
ENDROOT
BRANCH   2   3
ATOM      3  N   UNK     0       6.512   2.723  -0.020  1.00  0.00    -0.390 N 
HETATM    4  H   UNL     1       6.336   3.722  -0.016  1.00  0.00     0.157 HD
HETATM    5  H   UNL     1       7.461   2.432  -0.207  1.00  0.00     0.157 HD
ENDBRANCH   2   3
BRANCH   2   6
ATOM      6  C   UNK     0       5.683   0.407   0.039  1.00  0.00     0.005 A 
ATOM      7  C   UNK     0       4.642  -0.496  -0.217  1.00  0.00     0.041 A 
ATOM      8  C   UNK     0       4.901  -1.864  -0.217  1.00  0.00     0.034 A 
ATOM      9  N   UNK     0       6.144  -2.357  -0.006  1.00  0.00    -0.266 NA
ATOM     10  C   UNK     0       7.137  -1.478   0.231  1.00  0.00     0.118 A 
ATOM     11  C   UNK     0       6.961  -0.106   0.272  1.00  0.00     0.034 A 
BRANCH   8  12
ATOM     12  C   UNK     0       3.822  -2.877  -0.510  1.00  0.00     0.055 C 
ATOM     13  C   UNK     0       2.536  -2.684   0.283  1.00  0.00     0.011 C 
ENDBRANCH   8  12
ENDBRANCH   2   6
TORSDOF 3
