MODEL 1
REMARK VINA RESULT:      -5.1      0.000      0.000
REMARK  3 active torsions:
REMARK  status: ('A' for Active; 'I' for Inactive)
REMARK    1  A    between atoms: N_3  and  C_11 
REMARK    2  A    between atoms: C_4  and  C_5 
REMARK    3  A    between atoms: C_7  and  C_11 
ROOT
ATOM      1  S   UNK     0       3.743  30.287 -10.922  1.00  0.00    -0.060 SA
ATOM      2  C   UNK     0       4.496  31.651 -11.540  1.00  0.00     0.104 C 
ENDROOT
BRANCH   2   3
ATOM      3  N   UNK     0       4.186  31.984 -12.835  1.00  0.00    -0.390 N 
HETATM    4  H   UNL     1       3.204  32.057 -13.082  1.00  0.00     0.157 HD
HETATM    5  H   UNL     1       4.849  32.056 -13.594  1.00  0.00     0.157 HD
ENDBRANCH   2   3
BRANCH   2   6
ATOM      6  C   UNK     0       5.467  32.524 -10.805  1.00  0.00     0.005 A 
ATOM      7  C   UNK     0       6.743  32.780 -11.326  1.00  0.00     0.041 A 
ATOM      8  C   UNK     0       7.635  33.570 -10.606  1.00  0.00     0.034 A 
ATOM      9  N   UNK     0       7.299  34.131  -9.421  1.00  0.00    -0.266 NA
ATOM     10  C   UNK     0       6.067  33.884  -8.936  1.00  0.00     0.118 A 
ATOM     11  C   UNK     0       5.129  33.092  -9.575  1.00  0.00     0.034 A 
BRANCH   8  12
ATOM     12  C   UNK     0       9.011  33.896 -11.132  1.00  0.00     0.055 C 
ATOM     13  C   UNK     0       9.716  35.036 -10.409  1.00  0.00     0.011 C 
ENDBRANCH   8  12
ENDBRANCH   2   6
TORSDOF 3
ENDMDL
MODEL 2
REMARK VINA RESULT:      -4.9      1.023      1.023
REMARK  3 active torsions:
REMARK  status: ('A' for Active; 'I' for Inactive)
REMARK    1  A    between atoms: N_3  and  C_11 
REMARK    2  A    between atoms: C_4  and  C_5 
REMARK    3  A    between atoms: C_7  and  C_11 
ROOT
ATOM      1  S   UNK     0       5.242  28.998 -10.814  1.00  0.00    -0.060 SA
ATOM      2  C   UNK     0       4.717  30.577 -11.019  1.00  0.00     0.104 C 
ENDROOT
BRANCH   2   3
ATOM      3  N   UNK     0       3.484  30.738 -11.602  1.00  0.00    -0.390 N 
HETATM    4  H   UNL     1       3.002  29.906 -11.923  1.00  0.00     0.157 HD
HETATM    5  H   UNL     1       3.063  31.625 -11.839  1.00  0.00     0.157 HD
ENDBRANCH   2   3
BRANCH   2   6
ATOM      6  C   UNK     0       5.472  31.809 -10.624  1.00  0.00     0.005 A 
ATOM      7  C   UNK     0       6.745  32.074 -11.148  1.00  0.00     0.041 A 
ATOM      8  C   UNK     0       7.435  33.211 -10.740  1.00  0.00     0.034 A 
ATOM      9  N   UNK     0       6.902  34.098  -9.867  1.00  0.00    -0.266 NA
ATOM     10  C   UNK     0       5.674  33.836  -9.376  1.00  0.00     0.118 A 
ATOM     11  C   UNK     0       4.931  32.717  -9.711  1.00  0.00     0.034 A 
BRANCH   8  12
ATOM     12  C   UNK     0       8.797  33.555 -11.291  1.00  0.00     0.055 C 
ATOM     13  C   UNK     0       9.473  34.744 -10.620  1.00  0.00     0.011 C 
ENDBRANCH   8  12
ENDBRANCH   2   6
TORSDOF 3
ENDMDL
MODEL 3
REMARK VINA RESULT:      -4.9      3.039      3.455
REMARK  3 active torsions:
REMARK  status: ('A' for Active; 'I' for Inactive)
REMARK    1  A    between atoms: N_3  and  C_11 
REMARK    2  A    between atoms: C_4  and  C_5 
REMARK    3  A    between atoms: C_7  and  C_11 
ROOT
ATOM      1  S   UNK     0       6.424  28.743  -8.020  1.00  0.00    -0.060 SA
ATOM      2  C   UNK     0       6.504  28.703  -9.694  1.00  0.00     0.104 C 
ENDROOT
BRANCH   2   3
ATOM      3  N   UNK     0       6.334  27.473 -10.281  1.00  0.00    -0.390 N 
HETATM    4  H   UNL     1       5.417  27.251 -10.654  1.00  0.00     0.157 HD
HETATM    5  H   UNL     1       7.014  26.726 -10.277  1.00  0.00     0.157 HD
ENDBRANCH   2   3
BRANCH   2   6
ATOM      6  C   UNK     0       6.742  29.880 -10.588  1.00  0.00     0.005 A 
ATOM      7  C   UNK     0       7.870  30.695 -10.422  1.00  0.00     0.041 A 
ATOM      8  C   UNK     0       8.050  31.801 -11.249  1.00  0.00     0.034 A 
ATOM      9  N   UNK     0       7.178  32.102 -12.240  1.00  0.00    -0.266 NA
ATOM     10  C   UNK     0       6.102  31.306 -12.394  1.00  0.00     0.118 A 
ATOM     11  C   UNK     0       5.836  30.204 -11.601  1.00  0.00     0.034 A 
BRANCH   8  12
ATOM     12  C   UNK     0       9.258  32.696 -11.128  1.00  0.00     0.055 C 
ATOM     13  C   UNK     0       8.942  34.184 -11.047  1.00  0.00     0.011 C 
ENDBRANCH   8  12
ENDBRANCH   2   6
TORSDOF 3
ENDMDL
MODEL 4
REMARK VINA RESULT:      -4.9      1.737      1.790
REMARK  3 active torsions:
REMARK  status: ('A' for Active; 'I' for Inactive)
REMARK    1  A    between atoms: N_3  and  C_11 
REMARK    2  A    between atoms: C_4  and  C_5 
REMARK    3  A    between atoms: C_7  and  C_11 
ROOT
ATOM      1  S   UNK     0       3.521  30.013 -11.037  1.00  0.00    -0.060 SA
ATOM      2  C   UNK     0       4.612  31.276 -11.189  1.00  0.00     0.104 C 
ENDROOT
BRANCH   2   3
ATOM      3  N   UNK     0       4.220  32.329 -11.978  1.00  0.00    -0.390 N 
HETATM    4  H   UNL     1       3.259  32.646 -11.899  1.00  0.00     0.157 HD
HETATM    5  H   UNL     1       4.774  32.745 -12.713  1.00  0.00     0.157 HD
ENDBRANCH   2   3
BRANCH   2   6
ATOM      6  C   UNK     0       5.962  31.350 -10.543  1.00  0.00     0.005 A 
ATOM      7  C   UNK     0       6.990  32.119 -11.107  1.00  0.00     0.041 A 
ATOM      8  C   UNK     0       8.243  32.144 -10.501  1.00  0.00     0.034 A 
ATOM      9  N   UNK     0       8.498  31.469  -9.355  1.00  0.00    -0.266 NA
ATOM     10  C   UNK     0       7.499  30.741  -8.819  1.00  0.00     0.118 A 
ATOM     11  C   UNK     0       6.233  30.642  -9.370  1.00  0.00     0.034 A 
BRANCH   8  12
ATOM     12  C   UNK     0       9.376  32.973 -11.053  1.00  0.00     0.055 C 
ATOM     13  C   UNK     0       9.287  34.461 -10.740  1.00  0.00     0.011 C 
ENDBRANCH   8  12
ENDBRANCH   2   6
TORSDOF 3
ENDMDL
MODEL 5
REMARK VINA RESULT:      -4.6      2.356      2.459
REMARK  3 active torsions:
REMARK  status: ('A' for Active; 'I' for Inactive)
REMARK    1  A    between atoms: N_3  and  C_11 
REMARK    2  A    between atoms: C_4  and  C_5 
REMARK    3  A    between atoms: C_7  and  C_11 
ROOT
ATOM      1  S   UNK     0       6.193  28.894  -8.070  1.00  0.00    -0.060 SA
ATOM      2  C   UNK     0       6.516  29.831  -9.421  1.00  0.00     0.104 C 
ENDROOT
BRANCH   2   3
ATOM      3  N   UNK     0       6.840  29.151 -10.570  1.00  0.00    -0.390 N 
HETATM    4  H   UNL     1       6.263  29.307 -11.390  1.00  0.00     0.157 HD
HETATM    5  H   UNL     1       7.538  28.424 -10.640  1.00  0.00     0.157 HD
ENDBRANCH   2   3
BRANCH   2   6
ATOM      6  C   UNK     0       6.480  31.327  -9.479  1.00  0.00     0.005 A 
ATOM      7  C   UNK     0       7.653  32.082  -9.346  1.00  0.00     0.041 A 
ATOM      8  C   UNK     0       7.585  33.472  -9.373  1.00  0.00     0.034 A 
ATOM      9  N   UNK     0       6.415  34.128  -9.557  1.00  0.00    -0.266 NA
ATOM     10  C   UNK     0       5.296  33.391  -9.692  1.00  0.00     0.118 A 
ATOM     11  C   UNK     0       5.272  32.007  -9.653  1.00  0.00     0.034 A 
BRANCH   8  12
ATOM     12  C   UNK     0       8.821  34.331  -9.258  1.00  0.00     0.055 C 
ATOM     13  C   UNK     0       9.445  34.729 -10.589  1.00  0.00     0.011 C 
ENDBRANCH   8  12
ENDBRANCH   2   6
TORSDOF 3
ENDMDL
MODEL 6
REMARK VINA RESULT:      -4.5      7.703     10.105
REMARK  3 active torsions:
REMARK  status: ('A' for Active; 'I' for Inactive)
REMARK    1  A    between atoms: N_3  and  C_11 
REMARK    2  A    between atoms: C_4  and  C_5 
REMARK    3  A    between atoms: C_7  and  C_11 
ROOT
ATOM      1  S   UNK     0       1.935  29.093 -11.408  1.00  0.00    -0.060 SA
ATOM      2  C   UNK     0       0.321  28.781 -11.084  1.00  0.00     0.104 C 
ENDROOT
BRANCH   2   3
ATOM      3  N   UNK     0      -0.391  29.800 -10.500  1.00  0.00    -0.390 N 
HETATM    4  H   UNL     1      -1.353  29.932 -10.793  1.00  0.00     0.157 HD
HETATM    5  H   UNL     1      -0.007  30.501  -9.883  1.00  0.00     0.157 HD
ENDBRANCH   2   3
BRANCH   2   6
ATOM      6  C   UNK     0      -0.399  27.500 -11.375  1.00  0.00     0.005 A 
ATOM      7  C   UNK     0       0.299  26.361 -11.797  1.00  0.00     0.041 A 
ATOM      8  C   UNK     0      -0.400  25.193 -12.089  1.00  0.00     0.034 A 
ATOM      9  N   UNK     0      -1.744  25.110 -11.949  1.00  0.00    -0.266 NA
ATOM     10  C   UNK     0      -2.403  26.210 -11.536  1.00  0.00     0.118 A 
ATOM     11  C   UNK     0      -1.788  27.416 -11.247  1.00  0.00     0.034 A 
BRANCH   8  12
ATOM     12  C   UNK     0       0.305  23.932 -12.524  1.00  0.00     0.055 C 
ATOM     13  C   UNK     0       0.817  23.952 -13.958  1.00  0.00     0.011 C 
ENDBRANCH   8  12
ENDBRANCH   2   6
TORSDOF 3
ENDMDL
MODEL 7
REMARK VINA RESULT:      -4.5      2.119      2.573
REMARK  3 active torsions:
REMARK  status: ('A' for Active; 'I' for Inactive)
REMARK    1  A    between atoms: N_3  and  C_11 
REMARK    2  A    between atoms: C_4  and  C_5 
REMARK    3  A    between atoms: C_7  and  C_11 
ROOT
ATOM      1  S   UNK     0       4.443  28.063  -9.597  1.00  0.00    -0.060 SA
ATOM      2  C   UNK     0       4.246  29.198 -10.814  1.00  0.00     0.104 C 
ENDROOT
BRANCH   2   3
ATOM      3  N   UNK     0       3.201  28.986 -11.680  1.00  0.00    -0.390 N 
HETATM    4  H   UNL     1       2.789  28.059 -11.706  1.00  0.00     0.157 HD
HETATM    5  H   UNL     1       2.877  29.644 -12.375  1.00  0.00     0.157 HD
ENDBRANCH   2   3
BRANCH   2   6
ATOM      6  C   UNK     0       5.103  30.406 -11.033  1.00  0.00     0.005 A 
ATOM      7  C   UNK     0       6.495  30.338 -10.885  1.00  0.00     0.041 A 
ATOM      8  C   UNK     0       7.264  31.485 -11.065  1.00  0.00     0.034 A 
ATOM      9  N   UNK     0       6.710  32.671 -11.411  1.00  0.00    -0.266 NA
ATOM     10  C   UNK     0       5.372  32.721 -11.557  1.00  0.00     0.118 A 
ATOM     11  C   UNK     0       4.533  31.635 -11.374  1.00  0.00     0.034 A 
BRANCH   8  12
ATOM     12  C   UNK     0       8.767  31.462 -10.942  1.00  0.00     0.055 C 
ATOM     13  C   UNK     0       9.431  32.832 -10.981  1.00  0.00     0.011 C 
ENDBRANCH   8  12
ENDBRANCH   2   6
TORSDOF 3
ENDMDL
MODEL 8
REMARK VINA RESULT:      -4.5      9.222     11.060
REMARK  3 active torsions:
REMARK  status: ('A' for Active; 'I' for Inactive)
REMARK    1  A    between atoms: N_3  and  C_11 
REMARK    2  A    between atoms: C_4  and  C_5 
REMARK    3  A    between atoms: C_7  and  C_11 
ROOT
ATOM      1  S   UNK     0       0.232  22.841 -12.022  1.00  0.00    -0.060 SA
ATOM      2  C   UNK     0       0.170  24.360 -12.728  1.00  0.00     0.104 C 
ENDROOT
BRANCH   2   3
ATOM      3  N   UNK     0       0.758  24.482 -13.963  1.00  0.00    -0.390 N 
HETATM    4  H   UNL     1       1.529  25.135 -14.055  1.00  0.00     0.157 HD
HETATM    5  H   UNL     1       0.419  24.060 -14.815  1.00  0.00     0.157 HD
ENDBRANCH   2   3
BRANCH   2   6
ATOM      6  C   UNK     0      -0.466  25.578 -12.131  1.00  0.00     0.005 A 
ATOM      7  C   UNK     0      -1.832  25.598 -11.818  1.00  0.00     0.041 A 
ATOM      8  C   UNK     0      -2.402  26.755 -11.292  1.00  0.00     0.034 A 
ATOM      9  N   UNK     0      -1.667  27.864 -11.041  1.00  0.00    -0.266 NA
ATOM     10  C   UNK     0      -0.354  27.829 -11.340  1.00  0.00     0.118 A 
ATOM     11  C   UNK     0       0.285  26.730 -11.886  1.00  0.00     0.034 A 
BRANCH   8  12
ATOM     12  C   UNK     0      -3.861  26.822 -10.916  1.00  0.00     0.055 C 
ATOM     13  C   UNK     0      -4.827  26.639 -12.079  1.00  0.00     0.011 C 
ENDBRANCH   8  12
ENDBRANCH   2   6
TORSDOF 3
ENDMDL
MODEL 9
REMARK VINA RESULT:      -4.4      2.862      4.661
REMARK  3 active torsions:
REMARK  status: ('A' for Active; 'I' for Inactive)
REMARK    1  A    between atoms: N_3  and  C_11 
REMARK    2  A    between atoms: C_4  and  C_5 
REMARK    3  A    between atoms: C_7  and  C_11 
ROOT
ATOM      1  S   UNK     0       8.592  34.111  -9.196  1.00  0.00    -0.060 SA
ATOM      2  C   UNK     0       8.052  33.529 -10.672  1.00  0.00     0.104 C 
ENDROOT
BRANCH   2   3
ATOM      3  N   UNK     0       8.695  34.007 -11.788  1.00  0.00    -0.390 N 
HETATM    4  H   UNL     1       8.967  33.338 -12.500  1.00  0.00     0.157 HD
HETATM    5  H   UNL     1       9.020  34.956 -11.911  1.00  0.00     0.157 HD
ENDBRANCH   2   3
BRANCH   2   6
ATOM      6  C   UNK     0       6.942  32.543 -10.873  1.00  0.00     0.005 A 
ATOM      7  C   UNK     0       7.179  31.164 -10.785  1.00  0.00     0.041 A 
ATOM      8  C   UNK     0       6.134  30.270 -11.006  1.00  0.00     0.034 A 
ATOM      9  N   UNK     0       4.876  30.693 -11.275  1.00  0.00    -0.266 NA
ATOM     10  C   UNK     0       4.661  32.020 -11.348  1.00  0.00     0.118 A 
ATOM     11  C   UNK     0       5.647  32.974 -11.166  1.00  0.00     0.034 A 
BRANCH   8  12
ATOM     12  C   UNK     0       6.329  28.778 -10.901  1.00  0.00     0.055 C 
ATOM     13  C   UNK     0       5.305  28.062 -10.031  1.00  0.00     0.011 C 
ENDBRANCH   8  12
ENDBRANCH   2   6
TORSDOF 3
ENDMDL
