MODEL 1
REMARK VINA RESULT:      -5.0      0.000      0.000
REMARK  0 active torsions:
REMARK  status: ('A' for Active; 'I' for Inactive)
REMARK       I    between atoms: N_1  and  C_3 
REMARK       I    between atoms: C_3  and  N_4 
REMARK       I    between atoms: N_4  and  C_6 
REMARK       I    between atoms: C_6  and  N_8 
ROOT
ATOM      1  N   UNK     0       3.835  32.105  -9.814  1.00  0.00    -0.233 N 
ATOM      2  N   UNK     0       4.350  32.406 -11.931  1.00  0.00    -0.233 N 
ATOM      3  C   UNK     0       4.855  32.192 -10.697  1.00  0.00     0.707 C 
ATOM      4  N   UNK     0       6.036  32.067 -10.205  1.00  0.00     0.127 NA
ATOM      5  N   UNK     0       7.400  32.322 -12.052  1.00  0.00    -0.115 NA
ATOM      6  C   UNK     0       7.268  32.115 -10.785  1.00  0.00     0.732 C 
ATOM      7  C   UNK     0       8.311  31.705  -8.569  1.00  0.00     0.168 C 
ATOM      8  N   UNK     0       8.385  31.942 -10.000  1.00  0.00    -0.223 N 
ATOM      9  C   UNK     0       9.729  31.988 -10.551  1.00  0.00     0.168 C 
HETATM   10  H   UNL     1       2.862  32.124 -10.064  1.00  0.00     0.174 HD
HETATM   11  H   UNL     1       4.081  31.899  -8.855  1.00  0.00     0.174 HD
HETATM   12  H   UNL     1       3.352  32.481 -12.047  1.00  0.00     0.174 HD
HETATM   13  H   UNL     1       4.864  32.540 -12.785  1.00  0.00     0.174 HD
HETATM   14  H   UNL     1       6.471  32.421 -12.418  1.00  0.00     0.206 HD
ENDROOT
TORSDOF 0
ENDMDL
MODEL 2
REMARK VINA RESULT:      -4.9      1.627      2.088
REMARK  0 active torsions:
REMARK  status: ('A' for Active; 'I' for Inactive)
REMARK       I    between atoms: N_1  and  C_3 
REMARK       I    between atoms: C_3  and  N_4 
REMARK       I    between atoms: N_4  and  C_6 
REMARK       I    between atoms: C_6  and  N_8 
ROOT
ATOM      1  N   UNK     0       5.322  30.761 -12.280  1.00  0.00    -0.233 N 
ATOM      2  N   UNK     0       4.165  32.490 -11.564  1.00  0.00    -0.233 N 
ATOM      3  C   UNK     0       5.392  31.928 -11.600  1.00  0.00     0.707 C 
ATOM      4  N   UNK     0       6.553  32.242 -11.144  1.00  0.00     0.127 NA
ATOM      5  N   UNK     0       6.159  34.242 -10.056  1.00  0.00    -0.115 NA
ATOM      6  C   UNK     0       6.979  33.312 -10.416  1.00  0.00     0.732 C 
ATOM      7  C   UNK     0       9.283  32.386 -10.432  1.00  0.00     0.168 C 
ATOM      8  N   UNK     0       8.306  33.394 -10.061  1.00  0.00    -0.223 N 
ATOM      9  C   UNK     0       8.828  34.504  -9.280  1.00  0.00     0.168 C 
HETATM   10  H   UNL     1       4.497  30.420 -12.741  1.00  0.00     0.174 HD
HETATM   11  H   UNL     1       6.190  30.262 -12.416  1.00  0.00     0.174 HD
HETATM   12  H   UNL     1       3.394  32.013 -12.004  1.00  0.00     0.174 HD
HETATM   13  H   UNL     1       3.899  33.345 -11.108  1.00  0.00     0.174 HD
HETATM   14  H   UNL     1       5.261  33.979 -10.417  1.00  0.00     0.206 HD
ENDROOT
TORSDOF 0
ENDMDL
MODEL 3
REMARK VINA RESULT:      -4.5      1.486      1.916
REMARK  0 active torsions:
REMARK  status: ('A' for Active; 'I' for Inactive)
REMARK       I    between atoms: N_1  and  C_3 
REMARK       I    between atoms: C_3  and  N_4 
REMARK       I    between atoms: N_4  and  C_6 
REMARK       I    between atoms: C_6  and  N_8 
ROOT
ATOM      1  N   UNK     0       4.763  30.261  -9.917  1.00  0.00    -0.233 N 
ATOM      2  N   UNK     0       3.894  32.278  -9.803  1.00  0.00    -0.233 N 
ATOM      3  C   UNK     0       5.034  31.582 -10.004  1.00  0.00     0.707 C 
ATOM      4  N   UNK     0       6.260  31.890 -10.240  1.00  0.00     0.127 NA
ATOM      5  N   UNK     0       6.223  34.200 -10.259  1.00  0.00    -0.115 NA
ATOM      6  C   UNK     0       6.881  33.095 -10.374  1.00  0.00     0.732 C 
ATOM      7  C   UNK     0       9.034  31.926 -10.777  1.00  0.00     0.168 C 
ATOM      8  N   UNK     0       8.232  33.127 -10.634  1.00  0.00    -0.223 N 
ATOM      9  C   UNK     0       8.959  34.378 -10.782  1.00  0.00     0.168 C 
HETATM   10  H   UNL     1       3.844  29.875  -9.796  1.00  0.00     0.174 HD
HETATM   11  H   UNL     1       5.532  29.627 -10.094  1.00  0.00     0.174 HD
HETATM   12  H   UNL     1       3.040  31.777  -9.616  1.00  0.00     0.174 HD
HETATM   13  H   UNL     1       3.786  33.277  -9.782  1.00  0.00     0.174 HD
HETATM   14  H   UNL     1       5.272  33.941 -10.072  1.00  0.00     0.206 HD
ENDROOT
TORSDOF 0
ENDMDL
MODEL 4
REMARK VINA RESULT:      -4.5      1.437      1.904
REMARK  0 active torsions:
REMARK  status: ('A' for Active; 'I' for Inactive)
REMARK       I    between atoms: N_1  and  C_3 
REMARK       I    between atoms: C_3  and  N_4 
REMARK       I    between atoms: N_4  and  C_6 
REMARK       I    between atoms: C_6  and  N_8 
ROOT
ATOM      1  N   UNK     0       4.161  32.407 -12.320  1.00  0.00    -0.233 N 
ATOM      2  N   UNK     0       4.642  30.333 -11.770  1.00  0.00    -0.233 N 
ATOM      3  C   UNK     0       5.123  31.592 -11.833  1.00  0.00     0.707 C 
ATOM      4  N   UNK     0       6.245  32.154 -11.551  1.00  0.00     0.127 NA
ATOM      5  N   UNK     0       7.539  30.390 -10.810  1.00  0.00    -0.115 NA
ATOM      6  C   UNK     0       7.414  31.649 -11.066  1.00  0.00     0.732 C 
ATOM      7  C   UNK     0       8.403  33.926 -11.117  1.00  0.00     0.168 C 
ATOM      8  N   UNK     0       8.473  32.500 -10.852  1.00  0.00    -0.223 N 
ATOM      9  C   UNK     0       9.751  32.028 -10.344  1.00  0.00     0.168 C 
HETATM   10  H   UNL     1       3.221  32.118 -12.526  1.00  0.00     0.174 HD
HETATM   11  H   UNL     1       4.384  33.392 -12.374  1.00  0.00     0.174 HD
HETATM   12  H   UNL     1       3.698  30.152 -12.077  1.00  0.00     0.174 HD
HETATM   13  H   UNL     1       5.132  29.506 -11.475  1.00  0.00     0.174 HD
HETATM   14  H   UNL     1       6.659  29.968 -11.039  1.00  0.00     0.206 HD
ENDROOT
TORSDOF 0
ENDMDL
MODEL 5
REMARK VINA RESULT:      -4.5      2.502      3.186
REMARK  0 active torsions:
REMARK  status: ('A' for Active; 'I' for Inactive)
REMARK       I    between atoms: N_1  and  C_3 
REMARK       I    between atoms: C_3  and  N_4 
REMARK       I    between atoms: N_4  and  C_6 
REMARK       I    between atoms: C_6  and  N_8 
ROOT
ATOM      1  N   UNK     0       5.284  33.537 -10.887  1.00  0.00    -0.233 N 
ATOM      2  N   UNK     0       4.174  32.367 -12.383  1.00  0.00    -0.233 N 
ATOM      3  C   UNK     0       4.912  32.290 -11.255  1.00  0.00     0.707 C 
ATOM      4  N   UNK     0       5.323  31.336 -10.497  1.00  0.00     0.127 NA
ATOM      5  N   UNK     0       4.484  29.450 -11.536  1.00  0.00    -0.115 NA
ATOM      6  C   UNK     0       5.155  29.986 -10.572  1.00  0.00     0.732 C 
ATOM      7  C   UNK     0       6.481  29.720  -8.489  1.00  0.00     0.168 C 
ATOM      8  N   UNK     0       5.715  29.187  -9.601  1.00  0.00    -0.223 N 
ATOM      9  C   UNK     0       5.581  27.739  -9.622  1.00  0.00     0.168 C 
HETATM   10  H   UNL     1       4.988  34.379 -11.348  1.00  0.00     0.174 HD
HETATM   11  H   UNL     1       5.807  33.619 -10.025  1.00  0.00     0.174 HD
HETATM   12  H   UNL     1       4.004  33.270 -12.797  1.00  0.00     0.174 HD
HETATM   13  H   UNL     1       3.781  31.605 -12.907  1.00  0.00     0.174 HD
HETATM   14  H   UNL     1       4.176  30.207 -12.117  1.00  0.00     0.206 HD
ENDROOT
TORSDOF 0
ENDMDL
MODEL 6
REMARK VINA RESULT:      -4.4      2.966      4.328
REMARK  0 active torsions:
REMARK  status: ('A' for Active; 'I' for Inactive)
REMARK       I    between atoms: N_1  and  C_3 
REMARK       I    between atoms: C_3  and  N_4 
REMARK       I    between atoms: N_4  and  C_6 
REMARK       I    between atoms: C_6  and  N_8 
ROOT
ATOM      1  N   UNK     0       6.272  31.670 -12.860  1.00  0.00    -0.233 N 
ATOM      2  N   UNK     0       4.308  32.435 -12.232  1.00  0.00    -0.233 N 
ATOM      3  C   UNK     0       5.186  31.419 -12.096  1.00  0.00     0.707 C 
ATOM      4  N   UNK     0       5.207  30.315 -11.437  1.00  0.00     0.127 NA
ATOM      5  N   UNK     0       3.171  30.321 -10.346  1.00  0.00    -0.115 NA
ATOM      6  C   UNK     0       4.298  29.744 -10.598  1.00  0.00     0.732 C 
ATOM      7  C   UNK     0       5.839  27.828 -10.253  1.00  0.00     0.168 C 
ATOM      8  N   UNK     0       4.592  28.533 -10.016  1.00  0.00    -0.223 N 
ATOM      9  C   UNK     0       3.665  27.864  -9.116  1.00  0.00     0.168 C 
HETATM   10  H   UNL     1       6.418  32.518 -13.380  1.00  0.00     0.174 HD
HETATM   11  H   UNL     1       7.028  31.000 -12.811  1.00  0.00     0.174 HD
HETATM   12  H   UNL     1       4.536  33.202 -12.845  1.00  0.00     0.174 HD
HETATM   13  H   UNL     1       3.400  32.518 -11.808  1.00  0.00     0.174 HD
HETATM   14  H   UNL     1       3.170  31.176 -10.870  1.00  0.00     0.206 HD
ENDROOT
TORSDOF 0
ENDMDL
MODEL 7
REMARK VINA RESULT:      -4.4      1.892      4.172
REMARK  0 active torsions:
REMARK  status: ('A' for Active; 'I' for Inactive)
REMARK       I    between atoms: N_1  and  C_3 
REMARK       I    between atoms: C_3  and  N_4 
REMARK       I    between atoms: N_4  and  C_6 
REMARK       I    between atoms: C_6  and  N_8 
ROOT
ATOM      1  N   UNK     0       8.746  34.079 -11.747  1.00  0.00    -0.233 N 
ATOM      2  N   UNK     0       9.631  32.336 -10.740  1.00  0.00    -0.233 N 
ATOM      3  C   UNK     0       8.512  32.818 -11.320  1.00  0.00     0.707 C 
ATOM      4  N   UNK     0       7.328  32.364 -11.536  1.00  0.00     0.127 NA
ATOM      5  N   UNK     0       7.408  30.246 -10.616  1.00  0.00    -0.115 NA
ATOM      6  C   UNK     0       6.750  31.168 -11.235  1.00  0.00     0.732 C 
ATOM      7  C   UNK     0       4.640  31.938 -12.293  1.00  0.00     0.168 C 
ATOM      8  N   UNK     0       5.440  30.948 -11.596  1.00  0.00    -0.223 N 
ATOM      9  C   UNK     0       4.758  29.698 -11.300  1.00  0.00     0.168 C 
HETATM   10  H   UNL     1       9.638  34.540 -11.699  1.00  0.00     0.174 HD
HETATM   11  H   UNL     1       7.994  34.539 -12.242  1.00  0.00     0.174 HD
HETATM   12  H   UNL     1      10.448  32.924 -10.685  1.00  0.00     0.174 HD
HETATM   13  H   UNL     1       9.754  31.437 -10.306  1.00  0.00     0.174 HD
HETATM   14  H   UNL     1       8.325  30.619 -10.453  1.00  0.00     0.206 HD
ENDROOT
TORSDOF 0
ENDMDL
MODEL 8
REMARK VINA RESULT:      -4.3      1.977      4.146
REMARK  0 active torsions:
REMARK  status: ('A' for Active; 'I' for Inactive)
REMARK       I    between atoms: N_1  and  C_3 
REMARK       I    between atoms: C_3  and  N_4 
REMARK       I    between atoms: N_4  and  C_6 
REMARK       I    between atoms: C_6  and  N_8 
ROOT
ATOM      1  N   UNK     0       7.492  32.745 -11.624  1.00  0.00    -0.233 N 
ATOM      2  N   UNK     0       6.039  34.033 -10.592  1.00  0.00    -0.233 N 
ATOM      3  C   UNK     0       6.312  32.765 -10.965  1.00  0.00     0.707 C 
ATOM      4  N   UNK     0       5.719  31.631 -10.843  1.00  0.00     0.127 NA
ATOM      5  N   UNK     0       3.780  32.178  -9.711  1.00  0.00    -0.115 NA
ATOM      6  C   UNK     0       4.534  31.288 -10.264  1.00  0.00     0.732 C 
ATOM      7  C   UNK     0       4.937  28.916 -10.880  1.00  0.00     0.168 C 
ATOM      8  N   UNK     0       4.140  29.969 -10.276  1.00  0.00    -0.223 N 
ATOM      9  C   UNK     0       2.885  29.534  -9.684  1.00  0.00     0.168 C 
HETATM   10  H   UNL     1       8.092  33.543 -11.743  1.00  0.00     0.174 HD
HETATM   11  H   UNL     1       7.833  31.839 -11.919  1.00  0.00     0.174 HD
HETATM   12  H   UNL     1       6.687  34.767 -10.835  1.00  0.00     0.174 HD
HETATM   13  H   UNL     1       5.221  34.365 -10.111  1.00  0.00     0.174 HD
HETATM   14  H   UNL     1       4.256  33.054  -9.820  1.00  0.00     0.206 HD
ENDROOT
TORSDOF 0
ENDMDL
MODEL 9
REMARK VINA RESULT:      -4.3      2.254      3.013
REMARK  0 active torsions:
REMARK  status: ('A' for Active; 'I' for Inactive)
REMARK       I    between atoms: N_1  and  C_3 
REMARK       I    between atoms: C_3  and  N_4 
REMARK       I    between atoms: N_4  and  C_6 
REMARK       I    between atoms: C_6  and  N_8 
ROOT
ATOM      1  N   UNK     0       4.250  32.360 -12.367  1.00  0.00    -0.233 N 
ATOM      2  N   UNK     0       5.235  33.581 -10.825  1.00  0.00    -0.233 N 
ATOM      3  C   UNK     0       5.008  32.319 -11.249  1.00  0.00     0.707 C 
ATOM      4  N   UNK     0       5.334  31.146 -10.834  1.00  0.00     0.127 NA
ATOM      5  N   UNK     0       6.560  31.590  -8.927  1.00  0.00    -0.115 NA
ATOM      6  C   UNK     0       6.061  30.736  -9.757  1.00  0.00     0.732 C 
ATOM      7  C   UNK     0       5.728  28.375 -10.448  1.00  0.00     0.168 C 
ATOM      8  N   UNK     0       6.259  29.389  -9.556  1.00  0.00    -0.223 N 
ATOM      9  C   UNK     0       7.018  28.883  -8.424  1.00  0.00     0.168 C 
HETATM   10  H   UNL     1       3.972  33.204 -12.836  1.00  0.00     0.174 HD
HETATM   11  H   UNL     1       4.047  31.474 -12.811  1.00  0.00     0.174 HD
HETATM   12  H   UNL     1       4.839  34.350 -11.342  1.00  0.00     0.174 HD
HETATM   13  H   UNL     1       5.743  33.867 -10.006  1.00  0.00     0.174 HD
HETATM   14  H   UNL     1       6.293  32.496  -9.263  1.00  0.00     0.206 HD
ENDROOT
TORSDOF 0
ENDMDL
