MODEL 1
REMARK VINA RESULT:      -5.2      0.000      0.000
REMARK  0 active torsions:
REMARK  status: ('A' for Active; 'I' for Inactive)
REMARK       I    between atoms: N_1  and  C_3 
REMARK       I    between atoms: C_3  and  N_4 
REMARK       I    between atoms: N_4  and  C_6 
REMARK       I    between atoms: C_6  and  N_8 
ROOT
ATOM      1  N   UNK     0      14.633 -23.253   7.074  1.00  0.00    -0.233 N 
ATOM      2  N   UNK     0      16.092 -21.933   8.057  1.00  0.00    -0.233 N 
ATOM      3  C   UNK     0      15.027 -21.970   7.228  1.00  0.00     0.707 C 
ATOM      4  N   UNK     0      14.346 -21.092   6.580  1.00  0.00     0.127 NA
ATOM      5  N   UNK     0      15.402 -19.110   7.122  1.00  0.00    -0.115 NA
ATOM      6  C   UNK     0      14.468 -19.738   6.490  1.00  0.00     0.732 C 
ATOM      7  C   UNK     0      12.505 -19.677   4.970  1.00  0.00     0.168 C 
ATOM      8  N   UNK     0      13.579 -19.036   5.708  1.00  0.00    -0.223 N 
ATOM      9  C   UNK     0      13.655 -17.592   5.562  1.00  0.00     0.168 C 
HETATM   10  H   UNL     1      15.033 -24.034   7.564  1.00  0.00     0.174 HD
HETATM   11  H   UNL     1      13.811 -23.411   6.507  1.00  0.00     0.174 HD
HETATM   12  H   UNL     1      16.452 -22.797   8.432  1.00  0.00     0.174 HD
HETATM   13  H   UNL     1      16.618 -21.124   8.338  1.00  0.00     0.174 HD
HETATM   14  H   UNL     1      15.923 -19.808   7.618  1.00  0.00     0.206 HD
ENDROOT
TORSDOF 0
ENDMDL
MODEL 2
REMARK VINA RESULT:      -5.1      3.842      5.683
REMARK  0 active torsions:
REMARK  status: ('A' for Active; 'I' for Inactive)
REMARK       I    between atoms: N_1  and  C_3 
REMARK       I    between atoms: C_3  and  N_4 
REMARK       I    between atoms: N_4  and  C_6 
REMARK       I    between atoms: C_6  and  N_8 
ROOT
ATOM      1  N   UNK     0      12.899 -17.053   2.822  1.00  0.00    -0.233 N 
ATOM      2  N   UNK     0      14.665 -16.656   1.572  1.00  0.00    -0.233 N 
ATOM      3  C   UNK     0      14.081 -17.552   2.395  1.00  0.00     0.707 C 
ATOM      4  N   UNK     0      14.394 -18.715   2.845  1.00  0.00     0.127 NA
ATOM      5  N   UNK     0      16.459 -19.106   1.887  1.00  0.00    -0.115 NA
ATOM      6  C   UNK     0      15.490 -19.499   2.643  1.00  0.00     0.732 C 
ATOM      7  C   UNK     0      14.506 -21.232   4.125  1.00  0.00     0.168 C 
ATOM      8  N   UNK     0      15.558 -20.726   3.262  1.00  0.00    -0.223 N 
ATOM      9  C   UNK     0      16.701 -21.610   3.096  1.00  0.00     0.168 C 
HETATM   10  H   UNL     1      12.501 -16.185   2.507  1.00  0.00     0.174 HD
HETATM   11  H   UNL     1      12.340 -17.652   3.414  1.00  0.00     0.174 HD
HETATM   12  H   UNL     1      14.199 -15.781   1.389  1.00  0.00     0.174 HD
HETATM   13  H   UNL     1      15.561 -16.734   1.122  1.00  0.00     0.174 HD
HETATM   14  H   UNL     1      16.200 -18.198   1.549  1.00  0.00     0.206 HD
ENDROOT
TORSDOF 0
ENDMDL
MODEL 3
REMARK VINA RESULT:      -4.9      1.725      3.817
REMARK  0 active torsions:
REMARK  status: ('A' for Active; 'I' for Inactive)
REMARK       I    between atoms: N_1  and  C_3 
REMARK       I    between atoms: C_3  and  N_4 
REMARK       I    between atoms: N_4  and  C_6 
REMARK       I    between atoms: C_6  and  N_8 
ROOT
ATOM      1  N   UNK     0      14.495 -17.881   5.665  1.00  0.00    -0.233 N 
ATOM      2  N   UNK     0      16.266 -18.308   6.899  1.00  0.00    -0.233 N 
ATOM      3  C   UNK     0      15.279 -18.863   6.164  1.00  0.00     0.707 C 
ATOM      4  N   UNK     0      14.937 -20.065   5.857  1.00  0.00     0.127 NA
ATOM      5  N   UNK     0      16.517 -21.350   6.947  1.00  0.00    -0.115 NA
ATOM      6  C   UNK     0      15.475 -21.271   6.189  1.00  0.00     0.732 C 
ATOM      7  C   UNK     0      13.720 -22.407   4.848  1.00  0.00     0.168 C 
ATOM      8  N   UNK     0      14.892 -22.420   5.705  1.00  0.00    -0.223 N 
ATOM      9  C   UNK     0      15.410 -23.741   6.025  1.00  0.00     0.168 C 
HETATM   10  H   UNL     1      14.676 -16.899   5.773  1.00  0.00     0.174 HD
HETATM   11  H   UNL     1      13.741 -18.167   5.056  1.00  0.00     0.174 HD
HETATM   12  H   UNL     1      16.301 -17.305   6.995  1.00  0.00     0.174 HD
HETATM   13  H   UNL     1      16.985 -18.785   7.414  1.00  0.00     0.174 HD
HETATM   14  H   UNL     1      16.767 -20.407   7.178  1.00  0.00     0.206 HD
ENDROOT
TORSDOF 0
ENDMDL
MODEL 4
REMARK VINA RESULT:      -4.9      3.716      4.689
REMARK  0 active torsions:
REMARK  status: ('A' for Active; 'I' for Inactive)
REMARK       I    between atoms: N_1  and  C_3 
REMARK       I    between atoms: C_3  and  N_4 
REMARK       I    between atoms: N_4  and  C_6 
REMARK       I    between atoms: C_6  and  N_8 
ROOT
ATOM      1  N   UNK     0      16.301 -20.496   1.884  1.00  0.00    -0.233 N 
ATOM      2  N   UNK     0      16.158 -18.479   1.017  1.00  0.00    -0.233 N 
ATOM      3  C   UNK     0      15.665 -19.306   1.964  1.00  0.00     0.707 C 
ATOM      4  N   UNK     0      14.760 -19.214   2.873  1.00  0.00     0.127 NA
ATOM      5  N   UNK     0      13.956 -17.066   2.591  1.00  0.00    -0.115 NA
ATOM      6  C   UNK     0      13.927 -18.193   3.221  1.00  0.00     0.732 C 
ATOM      7  C   UNK     0      12.955 -19.614   5.010  1.00  0.00     0.168 C 
ATOM      8  N   UNK     0      13.042 -18.374   4.259  1.00  0.00    -0.223 N 
ATOM      9  C   UNK     0      12.121 -17.331   4.678  1.00  0.00     0.168 C 
HETATM   10  H   UNL     1      17.067 -20.691   1.263  1.00  0.00     0.174 HD
HETATM   11  H   UNL     1      16.052 -21.192   2.573  1.00  0.00     0.174 HD
HETATM   12  H   UNL     1      16.881 -18.816   0.400  1.00  0.00     0.174 HD
HETATM   13  H   UNL     1      15.864 -17.539   0.815  1.00  0.00     0.174 HD
HETATM   14  H   UNL     1      14.663 -17.158   1.886  1.00  0.00     0.206 HD
ENDROOT
TORSDOF 0
ENDMDL
MODEL 5
REMARK VINA RESULT:      -4.9      1.517      2.597
REMARK  0 active torsions:
REMARK  status: ('A' for Active; 'I' for Inactive)
REMARK       I    between atoms: N_1  and  C_3 
REMARK       I    between atoms: C_3  and  N_4 
REMARK       I    between atoms: N_4  and  C_6 
REMARK       I    between atoms: C_6  and  N_8 
ROOT
ATOM      1  N   UNK     0      15.573 -24.037   8.343  1.00  0.00    -0.233 N 
ATOM      2  N   UNK     0      14.323 -24.699   6.659  1.00  0.00    -0.233 N 
ATOM      3  C   UNK     0      14.914 -23.631   7.235  1.00  0.00     0.707 C 
ATOM      4  N   UNK     0      14.976 -22.373   6.975  1.00  0.00     0.127 NA
ATOM      5  N   UNK     0      13.696 -22.174   5.062  1.00  0.00    -0.115 NA
ATOM      6  C   UNK     0      14.431 -21.629   5.972  1.00  0.00     0.732 C 
ATOM      7  C   UNK     0      15.486 -19.595   6.929  1.00  0.00     0.168 C 
ATOM      8  N   UNK     0      14.671 -20.274   5.938  1.00  0.00    -0.223 N 
ATOM      9  C   UNK     0      14.115 -19.419   4.902  1.00  0.00     0.168 C 
HETATM   10  H   UNL     1      15.661 -24.995   8.634  1.00  0.00     0.174 HD
HETATM   11  H   UNL     1      16.098 -23.333   8.843  1.00  0.00     0.174 HD
HETATM   12  H   UNL     1      14.422 -25.606   7.089  1.00  0.00     0.174 HD
HETATM   13  H   UNL     1      13.742 -24.706   5.838  1.00  0.00     0.174 HD
HETATM   14  H   UNL     1      13.657 -23.151   5.282  1.00  0.00     0.206 HD
ENDROOT
TORSDOF 0
ENDMDL
MODEL 6
REMARK VINA RESULT:      -4.9      1.820      2.601
REMARK  0 active torsions:
REMARK  status: ('A' for Active; 'I' for Inactive)
REMARK       I    between atoms: N_1  and  C_3 
REMARK       I    between atoms: C_3  and  N_4 
REMARK       I    between atoms: N_4  and  C_6 
REMARK       I    between atoms: C_6  and  N_8 
ROOT
ATOM      1  N   UNK     0      15.764 -20.288   7.317  1.00  0.00    -0.233 N 
ATOM      2  N   UNK     0      16.465 -18.238   6.940  1.00  0.00    -0.233 N 
ATOM      3  C   UNK     0      15.454 -19.108   6.735  1.00  0.00     0.707 C 
ATOM      4  N   UNK     0      14.321 -19.062   6.129  1.00  0.00     0.127 NA
ATOM      5  N   UNK     0      14.267 -16.910   5.289  1.00  0.00    -0.115 NA
ATOM      6  C   UNK     0      13.705 -18.063   5.436  1.00  0.00     0.732 C 
ATOM      7  C   UNK     0      11.776 -19.567   5.010  1.00  0.00     0.168 C 
ATOM      8  N   UNK     0      12.466 -18.296   4.884  1.00  0.00    -0.223 N 
ATOM      9  C   UNK     0      11.756 -17.278   4.126  1.00  0.00     0.168 C 
HETATM   10  H   UNL     1      16.586 -20.450   7.872  1.00  0.00     0.174 HD
HETATM   11  H   UNL     1      15.063 -21.015   7.272  1.00  0.00     0.174 HD
HETATM   12  H   UNL     1      17.278 -18.542   7.455  1.00  0.00     0.174 HD
HETATM   13  H   UNL     1      16.534 -17.292   6.605  1.00  0.00     0.174 HD
HETATM   14  H   UNL     1      15.149 -16.966   5.763  1.00  0.00     0.206 HD
ENDROOT
TORSDOF 0
ENDMDL
MODEL 7
REMARK VINA RESULT:      -4.9      1.832      4.030
REMARK  0 active torsions:
REMARK  status: ('A' for Active; 'I' for Inactive)
REMARK       I    between atoms: N_1  and  C_3 
REMARK       I    between atoms: C_3  and  N_4 
REMARK       I    between atoms: N_4  and  C_6 
REMARK       I    between atoms: C_6  and  N_8 
ROOT
ATOM      1  N   UNK     0      16.247 -18.272   6.905  1.00  0.00    -0.233 N 
ATOM      2  N   UNK     0      14.504 -17.792   5.652  1.00  0.00    -0.233 N 
ATOM      3  C   UNK     0      15.244 -18.797   6.167  1.00  0.00     0.707 C 
ATOM      4  N   UNK     0      15.206 -20.081   6.104  1.00  0.00     0.127 NA
ATOM      5  N   UNK     0      13.389 -20.482   4.734  1.00  0.00    -0.115 NA
ATOM      6  C   UNK     0      14.363 -20.931   5.454  1.00  0.00     0.732 C 
ATOM      7  C   UNK     0      15.634 -22.862   6.358  1.00  0.00     0.168 C 
ATOM      8  N   UNK     0      14.561 -22.288   5.568  1.00  0.00    -0.223 N 
ATOM      9  C   UNK     0      13.703 -23.251   4.895  1.00  0.00     0.168 C 
HETATM   10  H   UNL     1      16.364 -17.291   7.091  1.00  0.00     0.174 HD
HETATM   11  H   UNL     1      16.850 -18.927   7.384  1.00  0.00     0.174 HD
HETATM   12  H   UNL     1      14.766 -16.839   5.850  1.00  0.00     0.174 HD
HETATM   13  H   UNL     1      13.710 -17.870   5.041  1.00  0.00     0.174 HD
HETATM   14  H   UNL     1      13.436 -19.482   4.793  1.00  0.00     0.206 HD
ENDROOT
TORSDOF 0
ENDMDL
MODEL 8
REMARK VINA RESULT:      -4.7      1.374      4.048
REMARK  0 active torsions:
REMARK  status: ('A' for Active; 'I' for Inactive)
REMARK       I    between atoms: N_1  and  C_3 
REMARK       I    between atoms: C_3  and  N_4 
REMARK       I    between atoms: N_4  and  C_6 
REMARK       I    between atoms: C_6  and  N_8 
ROOT
ATOM      1  N   UNK     0      13.216 -18.033   3.614  1.00  0.00    -0.233 N 
ATOM      2  N   UNK     0      14.203 -16.901   5.221  1.00  0.00    -0.233 N 
ATOM      3  C   UNK     0      13.924 -18.139   4.760  1.00  0.00     0.707 C 
ATOM      4  N   UNK     0      14.168 -19.337   5.161  1.00  0.00     0.127 NA
ATOM      5  N   UNK     0      15.337 -19.002   7.125  1.00  0.00    -0.115 NA
ATOM      6  C   UNK     0      14.826 -19.808   6.256  1.00  0.00     0.732 C 
ATOM      7  C   UNK     0      14.392 -22.133   5.499  1.00  0.00     0.168 C 
ATOM      8  N   UNK     0      14.941 -21.168   6.434  1.00  0.00    -0.223 N 
ATOM      9  C   UNK     0      15.624 -21.740   7.584  1.00  0.00     0.168 C 
HETATM   10  H   UNL     1      13.004 -17.165   3.154  1.00  0.00     0.174 HD
HETATM   11  H   UNL     1      12.982 -18.896   3.143  1.00  0.00     0.174 HD
HETATM   12  H   UNL     1      13.871 -16.100   4.707  1.00  0.00     0.174 HD
HETATM   13  H   UNL     1      14.692 -16.660   6.066  1.00  0.00     0.174 HD
HETATM   14  H   UNL     1      15.135 -18.075   6.799  1.00  0.00     0.206 HD
ENDROOT
TORSDOF 0
ENDMDL
MODEL 9
REMARK VINA RESULT:      -4.7      1.541      1.681
REMARK  0 active torsions:
REMARK  status: ('A' for Active; 'I' for Inactive)
REMARK       I    between atoms: N_1  and  C_3 
REMARK       I    between atoms: C_3  and  N_4 
REMARK       I    between atoms: N_4  and  C_6 
REMARK       I    between atoms: C_6  and  N_8 
ROOT
ATOM      1  N   UNK     0      15.832 -22.020   7.911  1.00  0.00    -0.233 N 
ATOM      2  N   UNK     0      17.228 -21.729   6.236  1.00  0.00    -0.233 N 
ATOM      3  C   UNK     0      16.041 -21.350   6.756  1.00  0.00     0.707 C 
ATOM      4  N   UNK     0      15.111 -20.535   6.403  1.00  0.00     0.127 NA
ATOM      5  N   UNK     0      15.894 -19.685   4.402  1.00  0.00    -0.115 NA
ATOM      6  C   UNK     0      14.982 -19.725   5.315  1.00  0.00     0.732 C 
ATOM      7  C   UNK     0      12.793 -18.934   6.181  1.00  0.00     0.168 C 
ATOM      8  N   UNK     0      13.858 -18.941   5.194  1.00  0.00    -0.223 N 
ATOM      9  C   UNK     0      13.652 -18.058   4.057  1.00  0.00     0.168 C 
HETATM   10  H   UNL     1      16.497 -22.641   8.337  1.00  0.00     0.174 HD
HETATM   11  H   UNL     1      14.992 -21.790   8.424  1.00  0.00     0.174 HD
HETATM   12  H   UNL     1      17.778 -22.421   6.722  1.00  0.00     0.174 HD
HETATM   13  H   UNL     1      17.641 -21.424   5.372  1.00  0.00     0.174 HD
HETATM   14  H   UNL     1      16.608 -20.327   4.692  1.00  0.00     0.206 HD
ENDROOT
TORSDOF 0
ENDMDL
