REMARK  2 active torsions:
REMARK  status: ('A' for Active; 'I' for Inactive)
REMARK    1  A    between atoms: N_2  and  N_4 
REMARK       I    between atoms: N_2  and  C_8 
REMARK    2  A    between atoms: C_5  and  C_8 
ROOT
ATOM      1  O   UNK     0       3.414   1.474  -0.292  1.00  0.00    -0.266 OA
ATOM      2  N   UNK     0       5.686   1.555   0.017  1.00  0.00    -0.290 N 
ATOM      3  C   UNK     0       4.477   0.880  -0.125  1.00  0.00     0.265 C 
HETATM    4  H   UNL     1       6.534   1.088   0.320  1.00  0.00     0.183 HD
ENDROOT
BRANCH   3   5
ATOM      5  C   UNK     0       4.502  -0.611  -0.054  1.00  0.00     0.036 A 
ATOM      6  C   UNK     0       5.679  -1.361  -0.057  1.00  0.00     0.036 A 
ATOM      7  C   UNK     0       5.571  -2.742  -0.004  1.00  0.00     0.117 A 
ATOM      8  N   UNK     0       4.397  -3.404   0.045  1.00  0.00    -0.273 NA
ATOM      9  C   UNK     0       3.273  -2.658   0.037  1.00  0.00     0.117 A 
ATOM     10  C   UNK     0       3.273  -1.277  -0.010  1.00  0.00     0.036 A 
ENDBRANCH   3   5
BRANCH   2  11
ATOM     11  N   UNK     0       5.679   2.969   0.017  1.00  0.00    -0.247 NA
HETATM   12  H   UNL     1       4.733   3.257   0.305  1.00  0.00     0.143 HD
HETATM   13  H   UNL     1       5.724   3.275  -0.960  1.00  0.00     0.143 HD
ENDBRANCH   2  11
TORSDOF 2
