MODEL 1
REMARK VINA RESULT:      -4.9      0.000      0.000
REMARK  2 active torsions:
REMARK  status: ('A' for Active; 'I' for Inactive)
REMARK    1  A    between atoms: N_2  and  N_4 
REMARK       I    between atoms: N_2  and  C_8 
REMARK    2  A    between atoms: C_5  and  C_8 
ROOT
ATOM      1  O   UNK     0       6.678  31.760 -12.541  1.00  0.00    -0.266 OA
ATOM      2  N   UNK     0       4.922  32.748 -11.444  1.00  0.00    -0.290 N 
ATOM      3  C   UNK     0       6.266  32.413 -11.585  1.00  0.00     0.265 C 
HETATM    4  H   UNL     1       4.549  33.136 -10.584  1.00  0.00     0.183 HD
ENDROOT
BRANCH   3   5
ATOM      5  C   UNK     0       7.209  32.862 -10.519  1.00  0.00     0.036 A 
ATOM      6  C   UNK     0       8.070  33.951 -10.664  1.00  0.00     0.036 A 
ATOM      7  C   UNK     0       8.912  34.260  -9.607  1.00  0.00     0.117 A 
ATOM      8  N   UNK     0       8.953  33.569  -8.450  1.00  0.00    -0.273 NA
ATOM      9  C   UNK     0       8.119  32.515  -8.337  1.00  0.00     0.117 A 
ATOM     10  C   UNK     0       7.239  32.127  -9.330  1.00  0.00     0.036 A 
ENDBRANCH   3   5
BRANCH   2  11
ATOM     11  N   UNK     0       4.000  32.279 -12.407  1.00  0.00    -0.247 NA
HETATM   12  H   UNL     1       4.461  31.502 -12.901  1.00  0.00     0.143 HD
HETATM   13  H   UNL     1       3.923  32.998 -13.133  1.00  0.00     0.143 HD
ENDBRANCH   2  11
TORSDOF 2
ENDMDL
MODEL 2
REMARK VINA RESULT:      -4.8      0.954      1.366
REMARK  2 active torsions:
REMARK  status: ('A' for Active; 'I' for Inactive)
REMARK    1  A    between atoms: N_2  and  N_4 
REMARK       I    between atoms: N_2  and  C_8 
REMARK    2  A    between atoms: C_5  and  C_8 
ROOT
ATOM      1  O   UNK     0       6.446  31.578 -13.012  1.00  0.00    -0.266 OA
ATOM      2  N   UNK     0       4.791  32.533 -11.741  1.00  0.00    -0.290 N 
ATOM      3  C   UNK     0       6.113  32.173 -11.989  1.00  0.00     0.265 C 
HETATM    4  H   UNL     1       4.483  32.870 -10.835  1.00  0.00     0.183 HD
ENDROOT
BRANCH   3   5
ATOM      5  C   UNK     0       7.133  32.522 -10.957  1.00  0.00     0.036 A 
ATOM      6  C   UNK     0       8.172  31.668 -10.584  1.00  0.00     0.036 A 
ATOM      7  C   UNK     0       9.047  32.099  -9.599  1.00  0.00     0.117 A 
ATOM      8  N   UNK     0       8.952  33.292  -8.977  1.00  0.00    -0.273 NA
ATOM      9  C   UNK     0       7.933  34.096  -9.347  1.00  0.00     0.117 A 
ATOM     10  C   UNK     0       7.011  33.761 -10.320  1.00  0.00     0.036 A 
ENDBRANCH   3   5
BRANCH   2  11
ATOM     11  N   UNK     0       3.798  32.157 -12.675  1.00  0.00    -0.247 NA
HETATM   12  H   UNL     1       4.151  32.429 -13.603  1.00  0.00     0.143 HD
HETATM   13  H   UNL     1       2.999  32.784 -12.540  1.00  0.00     0.143 HD
ENDBRANCH   2  11
TORSDOF 2
ENDMDL
MODEL 3
REMARK VINA RESULT:      -4.6      1.819      4.152
REMARK  2 active torsions:
REMARK  status: ('A' for Active; 'I' for Inactive)
REMARK    1  A    between atoms: N_2  and  N_4 
REMARK       I    between atoms: N_2  and  C_8 
REMARK    2  A    between atoms: C_5  and  C_8 
ROOT
ATOM      1  O   UNK     0       8.823  34.327 -11.605  1.00  0.00    -0.266 OA
ATOM      2  N   UNK     0       8.366  34.236  -9.358  1.00  0.00    -0.290 N 
ATOM      3  C   UNK     0       8.124  33.901 -10.688  1.00  0.00     0.265 C 
HETATM    4  H   UNL     1       7.703  34.029  -8.619  1.00  0.00     0.183 HD
ENDROOT
BRANCH   3   5
ATOM      5  C   UNK     0       6.965  33.006 -10.978  1.00  0.00     0.036 A 
ATOM      6  C   UNK     0       5.671  33.250 -10.516  1.00  0.00     0.036 A 
ATOM      7  C   UNK     0       4.681  32.335 -10.839  1.00  0.00     0.117 A 
ATOM      8  N   UNK     0       4.895  31.221 -11.569  1.00  0.00    -0.273 NA
ATOM      9  C   UNK     0       6.156  31.002 -11.996  1.00  0.00     0.117 A 
ATOM     10  C   UNK     0       7.211  31.854 -11.732  1.00  0.00     0.036 A 
ENDBRANCH   3   5
BRANCH   2  11
ATOM     11  N   UNK     0       9.419  35.133  -9.064  1.00  0.00    -0.247 NA
HETATM   12  H   UNL     1       9.731  34.913  -8.107  1.00  0.00     0.143 HD
HETATM   13  H   UNL     1       9.006  36.065  -8.962  1.00  0.00     0.143 HD
ENDBRANCH   2  11
TORSDOF 2
ENDMDL
MODEL 4
REMARK VINA RESULT:      -4.6      2.117      2.556
REMARK  2 active torsions:
REMARK  status: ('A' for Active; 'I' for Inactive)
REMARK    1  A    between atoms: N_2  and  N_4 
REMARK       I    between atoms: N_2  and  C_8 
REMARK    2  A    between atoms: C_5  and  C_8 
ROOT
ATOM      1  O   UNK     0       5.454  29.537 -11.499  1.00  0.00    -0.266 OA
ATOM      2  N   UNK     0       3.455  30.663 -11.514  1.00  0.00    -0.290 N 
ATOM      3  C   UNK     0       4.832  30.583 -11.327  1.00  0.00     0.265 C 
HETATM    4  H   UNL     1       2.914  31.468 -11.215  1.00  0.00     0.183 HD
ENDROOT
BRANCH   3   5
ATOM      5  C   UNK     0       5.546  31.819 -10.890  1.00  0.00     0.036 A 
ATOM      6  C   UNK     0       6.776  32.221 -11.414  1.00  0.00     0.036 A 
ATOM      7  C   UNK     0       7.348  33.381 -10.914  1.00  0.00     0.117 A 
ATOM      8  N   UNK     0       6.789  34.141  -9.950  1.00  0.00    -0.273 NA
ATOM      9  C   UNK     0       5.605  33.727  -9.453  1.00  0.00     0.117 A 
ATOM     10  C   UNK     0       4.952  32.588  -9.885  1.00  0.00     0.036 A 
ENDBRANCH   3   5
BRANCH   2  11
ATOM     11  N   UNK     0       2.747  29.490 -11.865  1.00  0.00    -0.247 NA
HETATM   12  H   UNL     1       2.043  29.771 -12.562  1.00  0.00     0.143 HD
HETATM   13  H   UNL     1       2.176  29.224 -11.057  1.00  0.00     0.143 HD
ENDBRANCH   2  11
TORSDOF 2
ENDMDL
MODEL 5
REMARK VINA RESULT:      -4.5      2.011      2.585
REMARK  2 active torsions:
REMARK  status: ('A' for Active; 'I' for Inactive)
REMARK    1  A    between atoms: N_2  and  N_4 
REMARK       I    between atoms: N_2  and  C_8 
REMARK    2  A    between atoms: C_5  and  C_8 
ROOT
ATOM      1  O   UNK     0       5.380  29.851 -11.634  1.00  0.00    -0.266 OA
ATOM      2  N   UNK     0       3.401  30.918 -11.177  1.00  0.00    -0.290 N 
ATOM      3  C   UNK     0       4.791  30.840 -11.205  1.00  0.00     0.265 C 
HETATM    4  H   UNL     1       2.910  31.650 -10.675  1.00  0.00     0.183 HD
ENDROOT
BRANCH   3   5
ATOM      5  C   UNK     0       5.562  32.004 -10.677  1.00  0.00     0.036 A 
ATOM      6  C   UNK     0       5.148  32.768  -9.584  1.00  0.00     0.036 A 
ATOM      7  C   UNK     0       5.943  33.837  -9.199  1.00  0.00     0.117 A 
ATOM      8  N   UNK     0       7.089  34.185  -9.819  1.00  0.00    -0.273 NA
ATOM      9  C   UNK     0       7.463  33.437 -10.878  1.00  0.00     0.117 A 
ATOM     10  C   UNK     0       6.744  32.351 -11.339  1.00  0.00     0.036 A 
ENDBRANCH   3   5
BRANCH   2  11
ATOM     11  N   UNK     0       2.649  29.802 -11.612  1.00  0.00    -0.247 NA
HETATM   12  H   UNL     1       2.947  29.608 -12.579  1.00  0.00     0.143 HD
HETATM   13  H   UNL     1       1.680  30.114 -11.729  1.00  0.00     0.143 HD
ENDBRANCH   2  11
TORSDOF 2
ENDMDL
MODEL 6
REMARK VINA RESULT:      -4.5      1.729      4.062
REMARK  2 active torsions:
REMARK  status: ('A' for Active; 'I' for Inactive)
REMARK    1  A    between atoms: N_2  and  N_4 
REMARK       I    between atoms: N_2  and  C_8 
REMARK    2  A    between atoms: C_5  and  C_8 
ROOT
ATOM      1  O   UNK     0       8.667  34.203 -11.555  1.00  0.00    -0.266 OA
ATOM      2  N   UNK     0       8.399  34.340  -9.281  1.00  0.00    -0.290 N 
ATOM      3  C   UNK     0       8.029  33.902 -10.549  1.00  0.00     0.265 C 
HETATM    4  H   UNL     1       7.792  34.239  -8.474  1.00  0.00     0.183 HD
ENDROOT
BRANCH   3   5
ATOM      5  C   UNK     0       6.806  33.053 -10.660  1.00  0.00     0.036 A 
ATOM      6  C   UNK     0       6.621  32.099 -11.661  1.00  0.00     0.036 A 
ATOM      7  C   UNK     0       5.433  31.384 -11.668  1.00  0.00     0.117 A 
ATOM      8  N   UNK     0       4.444  31.559 -10.767  1.00  0.00    -0.273 NA
ATOM      9  C   UNK     0       4.642  32.494  -9.815  1.00  0.00     0.117 A 
ATOM     10  C   UNK     0       5.790  33.256  -9.719  1.00  0.00     0.036 A 
ENDBRANCH   3   5
BRANCH   2  11
ATOM     11  N   UNK     0       9.517  35.198  -9.158  1.00  0.00    -0.247 NA
HETATM   12  H   UNL     1       9.244  35.942  -8.501  1.00  0.00     0.143 HD
HETATM   13  H   UNL     1       9.616  35.700 -10.045  1.00  0.00     0.143 HD
ENDBRANCH   2  11
TORSDOF 2
ENDMDL
MODEL 7
REMARK VINA RESULT:      -4.5      3.066      3.456
REMARK  2 active torsions:
REMARK  status: ('A' for Active; 'I' for Inactive)
REMARK    1  A    between atoms: N_2  and  N_4 
REMARK       I    between atoms: N_2  and  C_8 
REMARK    2  A    between atoms: C_5  and  C_8 
ROOT
ATOM      1  O   UNK     0       7.034  29.651  -8.692  1.00  0.00    -0.266 OA
ATOM      2  N   UNK     0       7.045  28.904 -10.861  1.00  0.00    -0.290 N 
ATOM      3  C   UNK     0       7.170  29.892  -9.889  1.00  0.00     0.265 C 
HETATM    4  H   UNL     1       6.989  29.121 -11.850  1.00  0.00     0.183 HD
ENDROOT
BRANCH   3   5
ATOM      5  C   UNK     0       7.465  31.282 -10.347  1.00  0.00     0.036 A 
ATOM      6  C   UNK     0       6.559  32.338 -10.230  1.00  0.00     0.036 A 
ATOM      7  C   UNK     0       6.944  33.581 -10.708  1.00  0.00     0.117 A 
ATOM      8  N   UNK     0       8.137  33.830 -11.285  1.00  0.00    -0.273 NA
ATOM      9  C   UNK     0       8.992  32.792 -11.396  1.00  0.00     0.117 A 
ATOM     10  C   UNK     0       8.706  31.516 -10.947  1.00  0.00     0.036 A 
ENDBRANCH   3   5
BRANCH   2  11
ATOM     11  N   UNK     0       6.704  27.592 -10.456  1.00  0.00    -0.247 NA
HETATM   12  H   UNL     1       5.841  27.346 -10.961  1.00  0.00     0.143 HD
HETATM   13  H   UNL     1       6.392  27.645  -9.481  1.00  0.00     0.143 HD
ENDBRANCH   2  11
TORSDOF 2
ENDMDL
MODEL 8
REMARK VINA RESULT:      -4.5      2.642      2.815
REMARK  2 active torsions:
REMARK  status: ('A' for Active; 'I' for Inactive)
REMARK    1  A    between atoms: N_2  and  N_4 
REMARK       I    between atoms: N_2  and  C_8 
REMARK    2  A    between atoms: C_5  and  C_8 
ROOT
ATOM      1  O   UNK     0       5.656  30.022 -11.897  1.00  0.00    -0.266 OA
ATOM      2  N   UNK     0       7.204  29.294 -10.368  1.00  0.00    -0.290 N 
ATOM      3  C   UNK     0       6.446  30.281 -10.992  1.00  0.00     0.265 C 
HETATM    4  H   UNL     1       7.972  29.516  -9.744  1.00  0.00     0.183 HD
ENDROOT
BRANCH   3   5
ATOM      5  C   UNK     0       6.630  31.690 -10.534  1.00  0.00     0.036 A 
ATOM      6  C   UNK     0       7.607  32.544 -11.048  1.00  0.00     0.036 A 
ATOM      7  C   UNK     0       7.689  33.826 -10.529  1.00  0.00     0.117 A 
ATOM      8  N   UNK     0       6.885  34.297  -9.555  1.00  0.00    -0.273 NA
ATOM      9  C   UNK     0       5.954  33.451  -9.067  1.00  0.00     0.117 A 
ATOM     10  C   UNK     0       5.788  32.155  -9.519  1.00  0.00     0.036 A 
ENDBRANCH   3   5
BRANCH   2  11
ATOM     11  N   UNK     0       7.094  27.961 -10.827  1.00  0.00    -0.247 NA
HETATM   12  H   UNL     1       6.227  27.913 -11.381  1.00  0.00     0.143 HD
HETATM   13  H   UNL     1       6.880  27.375 -10.015  1.00  0.00     0.143 HD
ENDBRANCH   2  11
TORSDOF 2
ENDMDL
MODEL 9
REMARK VINA RESULT:      -4.5      3.087      3.409
REMARK  2 active torsions:
REMARK  status: ('A' for Active; 'I' for Inactive)
REMARK    1  A    between atoms: N_2  and  N_4 
REMARK       I    between atoms: N_2  and  C_8 
REMARK    2  A    between atoms: C_5  and  C_8 
ROOT
ATOM      1  O   UNK     0       6.940  29.722  -8.692  1.00  0.00    -0.266 OA
ATOM      2  N   UNK     0       7.141  28.847 -10.803  1.00  0.00    -0.290 N 
ATOM      3  C   UNK     0       7.198  29.889  -9.882  1.00  0.00     0.265 C 
HETATM    4  H   UNL     1       7.187  29.007 -11.804  1.00  0.00     0.183 HD
ENDROOT
BRANCH   3   5
ATOM      5  C   UNK     0       7.572  31.243 -10.387  1.00  0.00     0.036 A 
ATOM      6  C   UNK     0       8.854  31.570 -10.831  1.00  0.00     0.036 A 
ATOM      7  C   UNK     0       9.083  32.868 -11.262  1.00  0.00     0.117 A 
ATOM      8  N   UNK     0       8.142  33.834 -11.273  1.00  0.00    -0.273 NA
ATOM      9  C   UNK     0       6.913  33.496 -10.831  1.00  0.00     0.117 A 
ATOM     10  C   UNK     0       6.582  32.231 -10.385  1.00  0.00     0.036 A 
ENDBRANCH   3   5
BRANCH   2  11
ATOM     11  N   UNK     0       6.728  27.570 -10.360  1.00  0.00    -0.247 NA
HETATM   12  H   UNL     1       5.842  27.709  -9.852  1.00  0.00     0.143 HD
HETATM   13  H   UNL     1       7.373  27.279  -9.619  1.00  0.00     0.143 HD
ENDBRANCH   2  11
TORSDOF 2
ENDMDL
