MODEL 1
REMARK VINA RESULT:      -5.2      0.000      0.000
REMARK  9 active torsions:
REMARK  status: ('A' for Active; 'I' for Inactive)
REMARK    1  A    between atoms: S_1  and  S_2 
REMARK    2  A    between atoms: S_1  and  C_15 
REMARK    3  A    between atoms: S_2  and  C_16 
REMARK    4  A    between atoms: N_5  and  C_7 
REMARK    5  A    between atoms: N_5  and  C_8 
REMARK    6  A    between atoms: N_5  and  C_15 
REMARK    7  A    between atoms: N_6  and  C_9 
REMARK    8  A    between atoms: N_6  and  C_10 
REMARK    9  A    between atoms: N_6  and  C_16 
ROOT
ATOM      1  S   UNK     0      17.167 -20.621   1.714  1.00  0.00    -0.020 SA
ENDROOT
BRANCH   1   2
ATOM      2  S   UNK     0      15.516 -19.434   2.117  1.00  0.00    -0.020 SA
BRANCH   2   3
ATOM      3  C   UNK     0      14.792 -19.939   3.688  1.00  0.00     0.147 C 
ATOM      4  S   UNK     0      14.752 -21.559   4.174  1.00  0.00    -0.052 SA
BRANCH   3   5
ATOM      5  N   UNK     0      14.320 -18.837   4.513  1.00  0.00    -0.367 N 
BRANCH   5   6
ATOM      6  C   UNK     0      13.393 -17.871   3.886  1.00  0.00     0.120 C 
ATOM      7  C   UNK     0      12.116 -17.415   4.571  1.00  0.00     0.026 C 
ENDBRANCH   5   6
BRANCH   5   8
ATOM      8  C   UNK     0      14.428 -18.993   5.990  1.00  0.00     0.120 C 
ATOM      9  C   UNK     0      15.769 -18.798   6.689  1.00  0.00     0.026 C 
ENDBRANCH   5   8
ENDBRANCH   3   5
ENDBRANCH   2   3
ENDBRANCH   1   2
BRANCH   1  10
ATOM     10  C   UNK     0      17.090 -21.183   0.003  1.00  0.00     0.147 C 
ATOM     11  S   UNK     0      16.174 -20.370  -1.164  1.00  0.00    -0.052 SA
BRANCH  10  12
ATOM     12  N   UNK     0      17.929 -22.336  -0.286  1.00  0.00    -0.367 N 
BRANCH  12  13
ATOM     13  C   UNK     0      19.151 -22.506   0.526  1.00  0.00     0.120 C 
ATOM     14  C   UNK     0      19.435 -23.782   1.301  1.00  0.00     0.026 C 
ENDBRANCH  12  13
BRANCH  12  15
ATOM     15  C   UNK     0      17.305 -23.464  -1.035  1.00  0.00     0.120 C 
ATOM     16  C   UNK     0      16.117 -24.216  -0.442  1.00  0.00     0.026 C 
ENDBRANCH  12  15
ENDBRANCH  10  12
ENDBRANCH   1  10
TORSDOF 9
ENDMDL
MODEL 2
REMARK VINA RESULT:      -5.2      1.760      7.142
REMARK  9 active torsions:
REMARK  status: ('A' for Active; 'I' for Inactive)
REMARK    1  A    between atoms: S_1  and  S_2 
REMARK    2  A    between atoms: S_1  and  C_15 
REMARK    3  A    between atoms: S_2  and  C_16 
REMARK    4  A    between atoms: N_5  and  C_7 
REMARK    5  A    between atoms: N_5  and  C_8 
REMARK    6  A    between atoms: N_5  and  C_15 
REMARK    7  A    between atoms: N_6  and  C_9 
REMARK    8  A    between atoms: N_6  and  C_10 
REMARK    9  A    between atoms: N_6  and  C_16 
ROOT
ATOM      1  S   UNK     0      15.145 -20.243   3.480  1.00  0.00    -0.020 SA
ENDROOT
BRANCH   1   2
ATOM      2  S   UNK     0      16.822 -21.419   3.160  1.00  0.00    -0.020 SA
BRANCH   2   3
ATOM      3  C   UNK     0      16.975 -21.766   1.398  1.00  0.00     0.147 C 
ATOM      4  S   UNK     0      16.736 -20.568   0.227  1.00  0.00    -0.052 SA
BRANCH   3   5
ATOM      5  N   UNK     0      17.385 -23.127   1.088  1.00  0.00    -0.367 N 
BRANCH   5   6
ATOM      6  C   UNK     0      16.975 -24.189   2.031  1.00  0.00     0.120 C 
ATOM      7  C   UNK     0      15.585 -24.802   2.002  1.00  0.00     0.026 C 
ENDBRANCH   5   6
BRANCH   5   8
ATOM      8  C   UNK     0      17.779 -23.420  -0.318  1.00  0.00     0.120 C 
ATOM      9  C   UNK     0      16.795 -24.093  -1.269  1.00  0.00     0.026 C 
ENDBRANCH   5   8
ENDBRANCH   3   5
ENDBRANCH   2   3
ENDBRANCH   1   2
BRANCH   1  10
ATOM     10  C   UNK     0      14.121 -21.005   4.753  1.00  0.00     0.147 C 
ATOM     11  S   UNK     0      13.639 -22.623   4.662  1.00  0.00    -0.052 SA
BRANCH  10  12
ATOM     12  N   UNK     0      13.815 -20.132   5.877  1.00  0.00    -0.367 N 
BRANCH  12  13
ATOM     13  C   UNK     0      14.862 -19.956   6.903  1.00  0.00     0.120 C 
ATOM     14  C   UNK     0      15.549 -21.139   7.567  1.00  0.00     0.026 C 
ENDBRANCH  12  13
BRANCH  12  15
ATOM     15  C   UNK     0      12.698 -19.161   5.702  1.00  0.00     0.120 C 
ATOM     16  C   UNK     0      12.992 -17.681   5.482  1.00  0.00     0.026 C 
ENDBRANCH  12  15
ENDBRANCH  10  12
ENDBRANCH   1  10
TORSDOF 9
ENDMDL
MODEL 3
REMARK VINA RESULT:      -5.2      1.892      2.613
REMARK  9 active torsions:
REMARK  status: ('A' for Active; 'I' for Inactive)
REMARK    1  A    between atoms: S_1  and  S_2 
REMARK    2  A    between atoms: S_1  and  C_15 
REMARK    3  A    between atoms: S_2  and  C_16 
REMARK    4  A    between atoms: N_5  and  C_7 
REMARK    5  A    between atoms: N_5  and  C_8 
REMARK    6  A    between atoms: N_5  and  C_15 
REMARK    7  A    between atoms: N_6  and  C_9 
REMARK    8  A    between atoms: N_6  and  C_10 
REMARK    9  A    between atoms: N_6  and  C_16 
ROOT
ATOM      1  S   UNK     0      16.533 -21.024   2.063  1.00  0.00    -0.020 SA
ENDROOT
BRANCH   1   2
ATOM      2  S   UNK     0      16.445 -22.270   3.717  1.00  0.00    -0.020 SA
BRANCH   2   3
ATOM      3  C   UNK     0      14.858 -22.052   4.541  1.00  0.00     0.147 C 
ATOM      4  S   UNK     0      13.692 -23.278   4.574  1.00  0.00    -0.052 SA
BRANCH   3   5
ATOM      5  N   UNK     0      14.705 -20.775   5.222  1.00  0.00    -0.367 N 
BRANCH   5   6
ATOM      6  C   UNK     0      13.409 -20.079   5.074  1.00  0.00     0.120 C 
ATOM      7  C   UNK     0      12.939 -19.028   6.066  1.00  0.00     0.026 C 
ENDBRANCH   5   6
BRANCH   5   8
ATOM      8  C   UNK     0      15.645 -20.479   6.339  1.00  0.00     0.120 C 
ATOM      9  C   UNK     0      15.617 -21.318   7.612  1.00  0.00     0.026 C 
ENDBRANCH   5   8
ENDBRANCH   3   5
ENDBRANCH   2   3
ENDBRANCH   1   2
BRANCH   1  10
ATOM     10  C   UNK     0      17.612 -21.762   0.822  1.00  0.00     0.147 C 
ATOM     11  S   UNK     0      19.208 -22.199   1.171  1.00  0.00    -0.052 SA
BRANCH  10  12
ATOM     12  N   UNK     0      16.970 -22.003  -0.462  1.00  0.00    -0.367 N 
BRANCH  12  13
ATOM     13  C   UNK     0      16.700 -20.830  -1.316  1.00  0.00     0.120 C 
ATOM     14  C   UNK     0      17.603 -19.607  -1.319  1.00  0.00     0.026 C 
ENDBRANCH  12  13
BRANCH  12  15
ATOM     15  C   UNK     0      17.034 -23.389  -1.006  1.00  0.00     0.120 C 
ATOM     16  C   UNK     0      15.915 -24.384  -0.712  1.00  0.00     0.026 C 
ENDBRANCH  12  15
ENDBRANCH  10  12
ENDBRANCH   1  10
TORSDOF 9
ENDMDL
MODEL 4
REMARK VINA RESULT:      -5.1      2.066      6.945
REMARK  9 active torsions:
REMARK  status: ('A' for Active; 'I' for Inactive)
REMARK    1  A    between atoms: S_1  and  S_2 
REMARK    2  A    between atoms: S_1  and  C_15 
REMARK    3  A    between atoms: S_2  and  C_16 
REMARK    4  A    between atoms: N_5  and  C_7 
REMARK    5  A    between atoms: N_5  and  C_8 
REMARK    6  A    between atoms: N_5  and  C_15 
REMARK    7  A    between atoms: N_6  and  C_9 
REMARK    8  A    between atoms: N_6  and  C_10 
REMARK    9  A    between atoms: N_6  and  C_16 
ROOT
ATOM      1  S   UNK     0      16.157 -21.241   3.845  1.00  0.00    -0.020 SA
ENDROOT
BRANCH   1   2
ATOM      2  S   UNK     0      16.732 -22.861   2.687  1.00  0.00    -0.020 SA
BRANCH   2   3
ATOM      3  C   UNK     0      17.853 -22.297   1.393  1.00  0.00     0.147 C 
ATOM      4  S   UNK     0      19.534 -22.328   1.591  1.00  0.00    -0.052 SA
BRANCH   3   5
ATOM      5  N   UNK     0      17.193 -21.889   0.163  1.00  0.00    -0.367 N 
BRANCH   5   6
ATOM      6  C   UNK     0      16.953 -20.442  -0.029  1.00  0.00     0.120 C 
ATOM      7  C   UNK     0      17.442 -19.698  -1.260  1.00  0.00     0.026 C 
ENDBRANCH   5   6
BRANCH   5   8
ATOM      8  C   UNK     0      17.209 -22.850  -0.974  1.00  0.00     0.120 C 
ATOM      9  C   UNK     0      16.125 -23.915  -1.098  1.00  0.00     0.026 C 
ENDBRANCH   5   8
ENDBRANCH   3   5
ENDBRANCH   2   3
ENDBRANCH   1   2
BRANCH   1  10
ATOM     10  C   UNK     0      14.677 -21.675   4.779  1.00  0.00     0.147 C 
ATOM     11  S   UNK     0      13.965 -23.205   4.663  1.00  0.00    -0.052 SA
BRANCH  10  12
ATOM     12  N   UNK     0      14.206 -20.629   5.673  1.00  0.00    -0.367 N 
BRANCH  12  13
ATOM     13  C   UNK     0      14.989 -20.383   6.901  1.00  0.00     0.120 C 
ATOM     14  C   UNK     0      15.638 -21.513   7.685  1.00  0.00     0.026 C 
ENDBRANCH  12  13
BRANCH  12  15
ATOM     15  C   UNK     0      13.272 -19.615   5.106  1.00  0.00     0.120 C 
ATOM     16  C   UNK     0      12.707 -18.510   5.992  1.00  0.00     0.026 C 
ENDBRANCH  12  15
ENDBRANCH  10  12
ENDBRANCH   1  10
TORSDOF 9
ENDMDL
MODEL 5
REMARK VINA RESULT:      -5.1      1.947      6.996
REMARK  9 active torsions:
REMARK  status: ('A' for Active; 'I' for Inactive)
REMARK    1  A    between atoms: S_1  and  S_2 
REMARK    2  A    between atoms: S_1  and  C_15 
REMARK    3  A    between atoms: S_2  and  C_16 
REMARK    4  A    between atoms: N_5  and  C_7 
REMARK    5  A    between atoms: N_5  and  C_8 
REMARK    6  A    between atoms: N_5  and  C_15 
REMARK    7  A    between atoms: N_6  and  C_9 
REMARK    8  A    between atoms: N_6  and  C_10 
REMARK    9  A    between atoms: N_6  and  C_16 
ROOT
ATOM      1  S   UNK     0      16.673 -22.672   4.447  1.00  0.00    -0.020 SA
ENDROOT
BRANCH   1   2
ATOM      2  S   UNK     0      16.741 -23.102   2.420  1.00  0.00    -0.020 SA
BRANCH   2   3
ATOM      3  C   UNK     0      16.772 -21.560   1.488  1.00  0.00     0.147 C 
ATOM      4  S   UNK     0      16.611 -20.055   2.244  1.00  0.00    -0.052 SA
BRANCH   3   5
ATOM      5  N   UNK     0      17.017 -21.725   0.063  1.00  0.00    -0.367 N 
BRANCH   5   6
ATOM      6  C   UNK     0      17.471 -23.055  -0.396  1.00  0.00     0.120 C 
ATOM      7  C   UNK     0      16.636 -23.917  -1.328  1.00  0.00     0.026 C 
ENDBRANCH   5   6
BRANCH   5   8
ATOM      8  C   UNK     0      16.391 -20.736  -0.858  1.00  0.00     0.120 C 
ATOM      9  C   UNK     0      17.261 -19.830  -1.722  1.00  0.00     0.026 C 
ENDBRANCH   5   8
ENDBRANCH   3   5
ENDBRANCH   2   3
ENDBRANCH   1   2
BRANCH   1  10
ATOM     10  C   UNK     0      14.983 -22.243   4.905  1.00  0.00     0.147 C 
ATOM     11  S   UNK     0      13.709 -23.346   4.759  1.00  0.00    -0.052 SA
BRANCH  10  12
ATOM     12  N   UNK     0      14.837 -20.908   5.466  1.00  0.00    -0.367 N 
BRANCH  12  13
ATOM     13  C   UNK     0      13.664 -20.118   5.039  1.00  0.00     0.120 C 
ATOM     14  C   UNK     0      12.963 -19.144   5.972  1.00  0.00     0.026 C 
ENDBRANCH  12  13
BRANCH  12  15
ATOM     15  C   UNK     0      15.589 -20.607   6.717  1.00  0.00     0.120 C 
ATOM     16  C   UNK     0      15.623 -21.620   7.857  1.00  0.00     0.026 C 
ENDBRANCH  12  15
ENDBRANCH  10  12
ENDBRANCH   1  10
TORSDOF 9
ENDMDL
MODEL 6
REMARK VINA RESULT:      -5.1      2.533      6.265
REMARK  9 active torsions:
REMARK  status: ('A' for Active; 'I' for Inactive)
REMARK    1  A    between atoms: S_1  and  S_2 
REMARK    2  A    between atoms: S_1  and  C_15 
REMARK    3  A    between atoms: S_2  and  C_16 
REMARK    4  A    between atoms: N_5  and  C_7 
REMARK    5  A    between atoms: N_5  and  C_8 
REMARK    6  A    between atoms: N_5  and  C_15 
REMARK    7  A    between atoms: N_6  and  C_9 
REMARK    8  A    between atoms: N_6  and  C_10 
REMARK    9  A    between atoms: N_6  and  C_16 
ROOT
ATOM      1  S   UNK     0      16.245 -22.564   4.520  1.00  0.00    -0.020 SA
ENDROOT
BRANCH   1   2
ATOM      2  S   UNK     0      16.438 -22.963   2.495  1.00  0.00    -0.020 SA
BRANCH   2   3
ATOM      3  C   UNK     0      17.656 -21.841   1.783  1.00  0.00     0.147 C 
ATOM      4  S   UNK     0      19.305 -22.219   1.747  1.00  0.00    -0.052 SA
BRANCH   3   5
ATOM      5  N   UNK     0      17.090 -20.639   1.189  1.00  0.00    -0.367 N 
BRANCH   5   6
ATOM      6  C   UNK     0      16.866 -20.647  -0.272  1.00  0.00     0.120 C 
ATOM      7  C   UNK     0      17.573 -19.675  -1.202  1.00  0.00     0.026 C 
ENDBRANCH   5   6
BRANCH   5   8
ATOM      8  C   UNK     0      16.383 -19.695   2.098  1.00  0.00     0.120 C 
ATOM      9  C   UNK     0      15.278 -18.792   1.562  1.00  0.00     0.026 C 
ENDBRANCH   5   8
ENDBRANCH   3   5
ENDBRANCH   2   3
ENDBRANCH   1   2
BRANCH   1  10
ATOM     10  C   UNK     0      14.507 -22.284   4.906  1.00  0.00     0.147 C 
ATOM     11  S   UNK     0      13.330 -23.469   4.638  1.00  0.00    -0.052 SA
BRANCH  10  12
ATOM     12  N   UNK     0      14.231 -20.995   5.521  1.00  0.00    -0.367 N 
BRANCH  12  13
ATOM     13  C   UNK     0      14.968 -20.662   6.757  1.00  0.00     0.120 C 
ATOM     14  C   UNK     0      15.645 -19.316   6.956  1.00  0.00     0.026 C 
ENDBRANCH  12  13
BRANCH  12  15
ATOM     15  C   UNK     0      13.594 -19.953   4.667  1.00  0.00     0.120 C 
ATOM     16  C   UNK     0      12.259 -19.336   5.072  1.00  0.00     0.026 C 
ENDBRANCH  12  15
ENDBRANCH  10  12
ENDBRANCH   1  10
TORSDOF 9
ENDMDL
MODEL 7
REMARK VINA RESULT:      -5.1      2.541      4.034
REMARK  9 active torsions:
REMARK  status: ('A' for Active; 'I' for Inactive)
REMARK    1  A    between atoms: S_1  and  S_2 
REMARK    2  A    between atoms: S_1  and  C_15 
REMARK    3  A    between atoms: S_2  and  C_16 
REMARK    4  A    between atoms: N_5  and  C_7 
REMARK    5  A    between atoms: N_5  and  C_8 
REMARK    6  A    between atoms: N_5  and  C_15 
REMARK    7  A    between atoms: N_6  and  C_9 
REMARK    8  A    between atoms: N_6  and  C_10 
REMARK    9  A    between atoms: N_6  and  C_16 
ROOT
ATOM      1  S   UNK     0      15.905 -24.321   4.720  1.00  0.00    -0.020 SA
ENDROOT
BRANCH   1   2
ATOM      2  S   UNK     0      14.162 -23.209   4.580  1.00  0.00    -0.020 SA
BRANCH   2   3
ATOM      3  C   UNK     0      14.577 -21.456   4.552  1.00  0.00     0.147 C 
ATOM      4  S   UNK     0      15.649 -20.809   3.413  1.00  0.00    -0.052 SA
BRANCH   3   5
ATOM      5  N   UNK     0      13.864 -20.654   5.535  1.00  0.00    -0.367 N 
BRANCH   5   6
ATOM      6  C   UNK     0      14.393 -20.649   6.916  1.00  0.00     0.120 C 
ATOM      7  C   UNK     0      15.796 -21.131   7.245  1.00  0.00     0.026 C 
ENDBRANCH   5   6
BRANCH   5   8
ATOM      8  C   UNK     0      12.964 -19.585   5.023  1.00  0.00     0.120 C 
ATOM      9  C   UNK     0      12.923 -18.221   5.704  1.00  0.00     0.026 C 
ENDBRANCH   5   8
ENDBRANCH   3   5
ENDBRANCH   2   3
ENDBRANCH   1   2
BRANCH   1  10
ATOM     10  C   UNK     0      16.628 -24.500   3.079  1.00  0.00     0.147 C 
ATOM     11  S   UNK     0      15.674 -24.748   1.704  1.00  0.00    -0.052 SA
BRANCH  10  12
ATOM     12  N   UNK     0      18.075 -24.344   3.042  1.00  0.00    -0.367 N 
BRANCH  12  13
ATOM     13  C   UNK     0      18.625 -23.351   2.097  1.00  0.00     0.120 C 
ATOM     14  C   UNK     0      19.318 -23.761   0.807  1.00  0.00     0.026 C 
ENDBRANCH  12  13
BRANCH  12  15
ATOM     15  C   UNK     0      18.845 -24.840   4.218  1.00  0.00     0.120 C 
ATOM     16  C   UNK     0      20.369 -24.793   4.214  1.00  0.00     0.026 C 
ENDBRANCH  12  15
ENDBRANCH  10  12
ENDBRANCH   1  10
TORSDOF 9
ENDMDL
MODEL 8
REMARK VINA RESULT:      -5.1      1.839      2.831
REMARK  9 active torsions:
REMARK  status: ('A' for Active; 'I' for Inactive)
REMARK    1  A    between atoms: S_1  and  S_2 
REMARK    2  A    between atoms: S_1  and  C_15 
REMARK    3  A    between atoms: S_2  and  C_16 
REMARK    4  A    between atoms: N_5  and  C_7 
REMARK    5  A    between atoms: N_5  and  C_8 
REMARK    6  A    between atoms: N_5  and  C_15 
REMARK    7  A    between atoms: N_6  and  C_9 
REMARK    8  A    between atoms: N_6  and  C_10 
REMARK    9  A    between atoms: N_6  and  C_16 
ROOT
ATOM      1  S   UNK     0      16.728 -21.166   2.352  1.00  0.00    -0.020 SA
ENDROOT
BRANCH   1   2
ATOM      2  S   UNK     0      16.518 -22.298   4.075  1.00  0.00    -0.020 SA
BRANCH   2   3
ATOM      3  C   UNK     0      14.856 -22.072   4.735  1.00  0.00     0.147 C 
ATOM      4  S   UNK     0      13.693 -23.299   4.667  1.00  0.00    -0.052 SA
BRANCH   3   5
ATOM      5  N   UNK     0      14.637 -20.787   5.382  1.00  0.00    -0.367 N 
BRANCH   5   6
ATOM      6  C   UNK     0      13.966 -19.736   4.587  1.00  0.00     0.120 C 
ATOM      7  C   UNK     0      12.615 -19.164   4.982  1.00  0.00     0.026 C 
ENDBRANCH   5   6
BRANCH   5   8
ATOM      8  C   UNK     0      14.683 -20.753   6.870  1.00  0.00     0.120 C 
ATOM      9  C   UNK     0      15.645 -21.659   7.631  1.00  0.00     0.026 C 
ENDBRANCH   5   8
ENDBRANCH   3   5
ENDBRANCH   2   3
ENDBRANCH   1   2
BRANCH   1  10
ATOM     10  C   UNK     0      17.929 -21.958   1.265  1.00  0.00     0.147 C 
ATOM     11  S   UNK     0      19.329 -22.693   1.866  1.00  0.00    -0.052 SA
BRANCH  10  12
ATOM     12  N   UNK     0      17.552 -21.964  -0.140  1.00  0.00    -0.367 N 
BRANCH  12  13
ATOM     13  C   UNK     0      17.533 -23.269  -0.831  1.00  0.00     0.120 C 
ATOM     14  C   UNK     0      16.332 -24.198  -0.770  1.00  0.00     0.026 C 
ENDBRANCH  12  13
BRANCH  12  15
ATOM     15  C   UNK     0      16.807 -20.779  -0.652  1.00  0.00     0.120 C 
ATOM     16  C   UNK     0      17.563 -19.548  -1.143  1.00  0.00     0.026 C 
ENDBRANCH  12  15
ENDBRANCH  10  12
ENDBRANCH   1  10
TORSDOF 9
ENDMDL
MODEL 9
REMARK VINA RESULT:      -5.0      1.977      7.019
REMARK  9 active torsions:
REMARK  status: ('A' for Active; 'I' for Inactive)
REMARK    1  A    between atoms: S_1  and  S_2 
REMARK    2  A    between atoms: S_1  and  C_15 
REMARK    3  A    between atoms: S_2  and  C_16 
REMARK    4  A    between atoms: N_5  and  C_7 
REMARK    5  A    between atoms: N_5  and  C_8 
REMARK    6  A    between atoms: N_5  and  C_15 
REMARK    7  A    between atoms: N_6  and  C_9 
REMARK    8  A    between atoms: N_6  and  C_10 
REMARK    9  A    between atoms: N_6  and  C_16 
ROOT
ATOM      1  S   UNK     0      16.038 -21.358   3.434  1.00  0.00    -0.020 SA
ENDROOT
BRANCH   1   2
ATOM      2  S   UNK     0      16.579 -23.202   2.657  1.00  0.00    -0.020 SA
BRANCH   2   3
ATOM      3  C   UNK     0      17.699 -22.955   1.267  1.00  0.00     0.147 C 
ATOM      4  S   UNK     0      19.324 -23.422   1.335  1.00  0.00    -0.052 SA
BRANCH   3   5
ATOM      5  N   UNK     0      17.070 -22.393   0.081  1.00  0.00    -0.367 N 
BRANCH   5   6
ATOM      6  C   UNK     0      17.217 -20.938  -0.138  1.00  0.00     0.120 C 
ATOM      7  C   UNK     0      16.069 -20.077  -0.638  1.00  0.00     0.026 C 
ENDBRANCH   5   6
BRANCH   5   8
ATOM      8  C   UNK     0      16.725 -23.333  -1.021  1.00  0.00     0.120 C 
ATOM      9  C   UNK     0      15.785 -24.507  -0.766  1.00  0.00     0.026 C 
ENDBRANCH   5   8
ENDBRANCH   3   5
ENDBRANCH   2   3
ENDBRANCH   1   2
BRANCH   1  10
ATOM     10  C   UNK     0      14.645 -21.573   4.558  1.00  0.00     0.147 C 
ATOM     11  S   UNK     0      13.789 -23.029   4.650  1.00  0.00    -0.052 SA
BRANCH  10  12
ATOM     12  N   UNK     0      14.379 -20.423   5.408  1.00  0.00    -0.367 N 
BRANCH  12  13
ATOM     13  C   UNK     0      13.625 -19.302   4.814  1.00  0.00     0.120 C 
ATOM     14  C   UNK     0      12.151 -19.072   5.110  1.00  0.00     0.026 C 
ENDBRANCH  12  13
BRANCH  12  15
ATOM     15  C   UNK     0      14.482 -20.625   6.881  1.00  0.00     0.120 C 
ATOM     16  C   UNK     0      15.668 -21.379   7.473  1.00  0.00     0.026 C 
ENDBRANCH  12  15
ENDBRANCH  10  12
ENDBRANCH   1  10
TORSDOF 9
ENDMDL
