MODEL 1
REMARK VINA RESULT:      -8.2      0.000      0.000
REMARK  3 active torsions:
REMARK  status: ('A' for Active; 'I' for Inactive)
REMARK    1  A    between atoms: S_2  and  C_21 
REMARK    2  A    between atoms: N_4  and  C_11 
REMARK    3  A    between atoms: C_5  and  C_7 
ROOT
ATOM      1  S   UNK     0     -11.807   5.409   2.119  1.00  0.00    -0.086 SA
ATOM      2  N   UNK     0      -9.661   3.058   2.512  1.00  0.00    -0.323 N 
ATOM      3  C   UNK     0      -9.624   3.946   1.366  1.00  0.00     0.038 A 
ATOM      4  C   UNK     0     -10.642   3.296   3.566  1.00  0.00     0.056 A 
ATOM      5  C   UNK     0     -10.468   4.981   1.125  1.00  0.00     0.029 A 
ATOM      6  C   UNK     0     -11.641   4.284   3.463  1.00  0.00     0.033 A 
ATOM      7  C   UNK     0      -8.560   3.666   0.287  1.00  0.00     0.105 A 
ATOM      8  C   UNK     0     -10.630   2.585   4.787  1.00  0.00     0.031 A 
ATOM      9  C   UNK     0     -10.357   5.850  -0.036  1.00  0.00     0.022 A 
ATOM     10  C   UNK     0     -12.597   4.478   4.485  1.00  0.00     0.021 A 
ATOM     11  C   UNK     0      -8.567   4.582  -0.928  1.00  0.00    -0.017 A 
ATOM     12  C   UNK     0     -11.598   2.756   5.788  1.00  0.00     0.002 A 
ATOM     13  C   UNK     0      -9.489   5.704  -1.032  1.00  0.00     0.016 A 
ATOM     14  C   UNK     0     -12.592   3.703   5.635  1.00  0.00     0.002 A 
ENDROOT
BRANCH   2  15
ATOM     15  C   UNK     0      -8.693   2.025   2.658  1.00  0.00     0.099 C 
ATOM     16  C   UNK     0      -7.438   2.009   3.158  1.00  0.00     0.047 C 
BRANCH  16  17
ATOM     17  C   UNK     0      -6.517   0.864   3.205  1.00  0.00     0.031 A 
ATOM     18  N   UNK     0      -5.307   0.881   2.477  1.00  0.00    -0.382 N 
ATOM     19  C   UNK     0      -4.271  -0.160   2.648  1.00  0.00     0.149 A 
ATOM     20  C   UNK     0      -4.899   1.911   1.526  1.00  0.00     0.150 C 
ATOM     21  C   UNK     0      -4.700  -1.267   3.560  1.00  0.00    -0.007 A 
ATOM     22  C   UNK     0      -5.884  -1.279   4.183  1.00  0.00    -0.000 A 
ATOM     23  C   UNK     0      -6.799  -0.175   4.021  1.00  0.00     0.029 A 
ENDBRANCH  16  17
ENDBRANCH   2  15
BRANCH  11  24
ATOM     24  S   UNK     0      -7.407   4.259  -2.189  1.00  0.00    -0.138 SA
ATOM     25  C   UNK     0      -5.797   4.250  -1.370  1.00  0.00     0.095 C 
ENDBRANCH  11  24
TORSDOF 3
ENDMDL
MODEL 2
REMARK VINA RESULT:      -7.4     15.658     18.659
REMARK  3 active torsions:
REMARK  status: ('A' for Active; 'I' for Inactive)
REMARK    1  A    between atoms: S_2  and  C_21 
REMARK    2  A    between atoms: N_4  and  C_11 
REMARK    3  A    between atoms: C_5  and  C_7 
ROOT
ATOM      1  S   UNK     0     -10.385   2.735 -12.062  1.00  0.00    -0.086 SA
ATOM      2  N   UNK     0     -11.073   0.983 -14.659  1.00  0.00    -0.323 N 
ATOM      3  C   UNK     0     -11.350   0.506 -13.317  1.00  0.00     0.038 A 
ATOM      4  C   UNK     0     -10.555   2.334 -14.842  1.00  0.00     0.056 A 
ATOM      5  C   UNK     0     -11.120   1.181 -12.163  1.00  0.00     0.029 A 
ATOM      6  C   UNK     0     -10.196   3.161 -13.760  1.00  0.00     0.033 A 
ATOM      7  C   UNK     0     -11.912  -0.922 -13.174  1.00  0.00     0.105 A 
ATOM      8  C   UNK     0     -10.423   2.929 -16.116  1.00  0.00     0.031 A 
ATOM      9  C   UNK     0     -11.446   0.652 -10.848  1.00  0.00     0.022 A 
ATOM     10  C   UNK     0      -9.671   4.457 -13.963  1.00  0.00     0.021 A 
ATOM     11  C   UNK     0     -12.153  -1.418 -11.756  1.00  0.00    -0.017 A 
ATOM     12  C   UNK     0      -9.872   4.204 -16.320  1.00  0.00     0.002 A 
ATOM     13  C   UNK     0     -11.926  -0.563 -10.600  1.00  0.00     0.016 A 
ATOM     14  C   UNK     0      -9.488   4.970 -15.237  1.00  0.00     0.002 A 
ENDROOT
BRANCH   2  15
ATOM     15  C   UNK     0     -11.392   0.181 -15.790  1.00  0.00     0.099 C 
ATOM     16  C   UNK     0     -10.641  -0.588 -16.610  1.00  0.00     0.047 C 
BRANCH  16  17
ATOM     17  C   UNK     0     -11.099  -1.337 -17.789  1.00  0.00     0.031 A 
ATOM     18  N   UNK     0     -10.189  -2.084 -18.568  1.00  0.00    -0.382 N 
ATOM     19  C   UNK     0     -10.636  -2.999 -19.640  1.00  0.00     0.149 A 
ATOM     20  C   UNK     0      -8.738  -2.097 -18.404  1.00  0.00     0.150 C 
ATOM     21  C   UNK     0     -12.112  -2.944 -19.877  1.00  0.00    -0.007 A 
ATOM     22  C   UNK     0     -12.937  -2.173 -19.158  1.00  0.00    -0.000 A 
ATOM     23  C   UNK     0     -12.419  -1.374 -18.074  1.00  0.00     0.029 A 
ENDBRANCH  16  17
ENDBRANCH   2  15
BRANCH  11  24
ATOM     24  S   UNK     0     -12.742  -3.047 -11.561  1.00  0.00    -0.138 SA
ATOM     25  C   UNK     0     -12.112  -3.596  -9.958  1.00  0.00     0.095 C 
ENDBRANCH  11  24
TORSDOF 3
ENDMDL
MODEL 3
REMARK VINA RESULT:      -7.3      3.224      7.668
REMARK  3 active torsions:
REMARK  status: ('A' for Active; 'I' for Inactive)
REMARK    1  A    between atoms: S_2  and  C_21 
REMARK    2  A    between atoms: N_4  and  C_11 
REMARK    3  A    between atoms: C_5  and  C_7 
ROOT
ATOM      1  S   UNK     0      -2.323   2.493   2.618  1.00  0.00    -0.086 SA
ATOM      2  N   UNK     0      -5.374   3.481   2.577  1.00  0.00    -0.323 N 
ATOM      3  C   UNK     0      -5.018   2.106   2.873  1.00  0.00     0.038 A 
ATOM      4  C   UNK     0      -4.315   4.466   2.386  1.00  0.00     0.056 A 
ATOM      5  C   UNK     0      -3.761   1.600   2.938  1.00  0.00     0.029 A 
ATOM      6  C   UNK     0      -2.951   4.117   2.356  1.00  0.00     0.033 A 
ATOM      7  C   UNK     0      -6.170   1.105   3.083  1.00  0.00     0.105 A 
ATOM      8  C   UNK     0      -4.579   5.849   2.266  1.00  0.00     0.031 A 
ATOM      9  C   UNK     0      -3.473   0.212   3.266  1.00  0.00     0.022 A 
ATOM     10  C   UNK     0      -1.945   5.085   2.143  1.00  0.00     0.021 A 
ATOM     11  C   UNK     0      -5.774  -0.340   3.347  1.00  0.00    -0.017 A 
ATOM     12  C   UNK     0      -3.583   6.806   2.023  1.00  0.00     0.002 A 
ATOM     13  C   UNK     0      -4.378  -0.741   3.460  1.00  0.00     0.016 A 
ATOM     14  C   UNK     0      -2.258   6.422   1.954  1.00  0.00     0.002 A 
ENDROOT
BRANCH   2  15
ATOM     15  C   UNK     0      -6.738   3.887   2.568  1.00  0.00     0.099 C 
ATOM     16  C   UNK     0      -7.710   3.814   1.632  1.00  0.00     0.047 C 
BRANCH  16  17
ATOM     17  C   UNK     0      -9.085   4.324   1.741  1.00  0.00     0.031 A 
ATOM     18  N   UNK     0      -9.736   4.885   0.620  1.00  0.00    -0.382 N 
ATOM     19  C   UNK     0     -11.174   5.232   0.637  1.00  0.00     0.149 A 
ATOM     20  C   UNK     0      -9.123   5.150  -0.678  1.00  0.00     0.150 C 
ATOM     21  C   UNK     0     -11.805   5.041   1.981  1.00  0.00    -0.007 A 
ATOM     22  C   UNK     0     -11.136   4.566   3.038  1.00  0.00    -0.000 A 
ATOM     23  C   UNK     0      -9.754   4.174   2.904  1.00  0.00     0.029 A 
ENDBRANCH  16  17
ENDBRANCH   2  15
BRANCH  11  24
ATOM     24  S   UNK     0      -7.056  -1.506   3.540  1.00  0.00    -0.138 SA
ATOM     25  C   UNK     0      -8.327  -0.666   4.511  1.00  0.00     0.095 C 
ENDBRANCH  11  24
TORSDOF 3
ENDMDL
MODEL 4
REMARK VINA RESULT:      -7.2      3.899      6.588
REMARK  3 active torsions:
REMARK  status: ('A' for Active; 'I' for Inactive)
REMARK    1  A    between atoms: S_2  and  C_21 
REMARK    2  A    between atoms: N_4  and  C_11 
REMARK    3  A    between atoms: C_5  and  C_7 
ROOT
ATOM      1  S   UNK     0      -7.989   0.750   3.456  1.00  0.00    -0.086 SA
ATOM      2  N   UNK     0      -5.629   2.649   2.401  1.00  0.00    -0.323 N 
ATOM      3  C   UNK     0      -5.406   1.249   2.711  1.00  0.00     0.038 A 
ATOM      4  C   UNK     0      -6.983   3.188   2.478  1.00  0.00     0.056 A 
ATOM      5  C   UNK     0      -6.341   0.364   3.138  1.00  0.00     0.029 A 
ATOM      6  C   UNK     0      -8.072   2.437   2.960  1.00  0.00     0.033 A 
ATOM      7  C   UNK     0      -3.963   0.720   2.600  1.00  0.00     0.105 A 
ATOM      8  C   UNK     0      -7.307   4.488   2.028  1.00  0.00     0.031 A 
ATOM      9  C   UNK     0      -6.053  -1.036   3.408  1.00  0.00     0.022 A 
ATOM     10  C   UNK     0      -9.369   2.991   3.050  1.00  0.00     0.021 A 
ATOM     11  C   UNK     0      -3.744  -0.738   2.974  1.00  0.00    -0.017 A 
ATOM     12  C   UNK     0      -8.588   5.048   2.147  1.00  0.00     0.002 A 
ATOM     13  C   UNK     0      -4.852  -1.603   3.353  1.00  0.00     0.016 A 
ATOM     14  C   UNK     0      -9.624   4.298   2.668  1.00  0.00     0.002 A 
ENDROOT
BRANCH   2  15
ATOM     15  C   UNK     0      -4.561   3.464   1.933  1.00  0.00     0.099 C 
ATOM     16  C   UNK     0      -3.696   4.290   2.562  1.00  0.00     0.047 C 
BRANCH  16  17
ATOM     17  C   UNK     0      -2.654   5.122   1.940  1.00  0.00     0.031 A 
ATOM     18  N   UNK     0      -2.452   6.455   2.358  1.00  0.00    -0.382 N 
ATOM     19  C   UNK     0      -1.298   7.258   1.898  1.00  0.00     0.149 A 
ATOM     20  C   UNK     0      -3.288   7.189   3.303  1.00  0.00     0.150 C 
ATOM     21  C   UNK     0      -0.469   6.553   0.870  1.00  0.00    -0.007 A 
ATOM     22  C   UNK     0      -0.732   5.310   0.450  1.00  0.00    -0.000 A 
ATOM     23  C   UNK     0      -1.833   4.571   1.020  1.00  0.00     0.029 A 
ENDBRANCH  16  17
ENDBRANCH   2  15
BRANCH  11  24
ATOM     24  S   UNK     0      -2.114  -1.353   2.905  1.00  0.00    -0.138 SA
ATOM     25  C   UNK     0      -1.225  -0.234   1.800  1.00  0.00     0.095 C 
ENDBRANCH  11  24
TORSDOF 3
ENDMDL
MODEL 5
REMARK VINA RESULT:      -7.1      3.792      8.325
REMARK  3 active torsions:
REMARK  status: ('A' for Active; 'I' for Inactive)
REMARK    1  A    between atoms: S_2  and  C_21 
REMARK    2  A    between atoms: N_4  and  C_11 
REMARK    3  A    between atoms: C_5  and  C_7 
ROOT
ATOM      1  S   UNK     0      -0.829   3.148   2.411  1.00  0.00    -0.086 SA
ATOM      2  N   UNK     0      -3.915   3.994   2.193  1.00  0.00    -0.323 N 
ATOM      3  C   UNK     0      -3.512   2.660   2.595  1.00  0.00     0.038 A 
ATOM      4  C   UNK     0      -2.891   5.011   1.973  1.00  0.00     0.056 A 
ATOM      5  C   UNK     0      -2.239   2.216   2.740  1.00  0.00     0.029 A 
ATOM      6  C   UNK     0      -1.514   4.721   2.016  1.00  0.00     0.033 A 
ATOM      7  C   UNK     0      -4.629   1.625   2.832  1.00  0.00     0.105 A 
ATOM      8  C   UNK     0      -3.208   6.370   1.749  1.00  0.00     0.031 A 
ATOM      9  C   UNK     0      -1.906   0.867   3.172  1.00  0.00     0.022 A 
ATOM     10  C   UNK     0      -0.541   5.717   1.773  1.00  0.00     0.021 A 
ATOM     11  C   UNK     0      -4.184   0.220   3.208  1.00  0.00    -0.017 A 
ATOM     12  C   UNK     0      -2.243   7.351   1.476  1.00  0.00     0.002 A 
ATOM     13  C   UNK     0      -2.778  -0.110   3.399  1.00  0.00     0.016 A 
ATOM     14  C   UNK     0      -0.902   7.023   1.482  1.00  0.00     0.002 A 
ENDROOT
BRANCH   2  15
ATOM     15  C   UNK     0      -5.293   4.339   2.106  1.00  0.00     0.099 C 
ATOM     16  C   UNK     0      -6.205   4.227   1.116  1.00  0.00     0.047 C 
BRANCH  16  17
ATOM     17  C   UNK     0      -7.606   4.673   1.147  1.00  0.00     0.031 A 
ATOM     18  N   UNK     0      -8.363   4.753  -0.042  1.00  0.00    -0.382 N 
ATOM     19  C   UNK     0      -9.820   5.010  -0.032  1.00  0.00     0.149 A 
ATOM     20  C   UNK     0      -7.851   4.554  -1.395  1.00  0.00     0.150 C 
ATOM     21  C   UNK     0     -10.353   5.294   1.338  1.00  0.00    -0.007 A 
ATOM     22  C   UNK     0      -9.589   5.272   2.436  1.00  0.00    -0.000 A 
ATOM     23  C   UNK     0      -8.191   4.927   2.338  1.00  0.00     0.029 A 
ENDBRANCH  16  17
ENDBRANCH   2  15
BRANCH  11  24
ATOM     24  S   UNK     0      -5.422  -0.986   3.435  1.00  0.00    -0.138 SA
ATOM     25  C   UNK     0      -4.550  -2.567   3.486  1.00  0.00     0.095 C 
ENDBRANCH  11  24
TORSDOF 3
ENDMDL
MODEL 6
REMARK VINA RESULT:      -7.1      2.822      6.645
REMARK  3 active torsions:
REMARK  status: ('A' for Active; 'I' for Inactive)
REMARK    1  A    between atoms: S_2  and  C_21 
REMARK    2  A    between atoms: N_4  and  C_11 
REMARK    3  A    between atoms: C_5  and  C_7 
ROOT
ATOM      1  S   UNK     0      -3.807   0.746   3.476  1.00  0.00    -0.086 SA
ATOM      2  N   UNK     0      -6.447   2.313   2.548  1.00  0.00    -0.323 N 
ATOM      3  C   UNK     0      -5.126   2.902   2.435  1.00  0.00     0.038 A 
ATOM      4  C   UNK     0      -6.575   0.934   3.007  1.00  0.00     0.056 A 
ATOM      5  C   UNK     0      -3.953   2.312   2.776  1.00  0.00     0.029 A 
ATOM      6  C   UNK     0      -5.476   0.182   3.463  1.00  0.00     0.033 A 
ATOM      7  C   UNK     0      -5.039   4.355   1.930  1.00  0.00     0.105 A 
ATOM      8  C   UNK     0      -7.804   0.237   2.980  1.00  0.00     0.031 A 
ATOM      9  C   UNK     0      -2.658   2.953   2.612  1.00  0.00     0.022 A 
ATOM     10  C   UNK     0      -5.628  -1.144   3.928  1.00  0.00     0.021 A 
ATOM     11  C   UNK     0      -3.649   4.968   1.862  1.00  0.00    -0.017 A 
ATOM     12  C   UNK     0      -7.962  -1.067   3.471  1.00  0.00     0.002 A 
ATOM     13  C   UNK     0      -2.458   4.199   2.195  1.00  0.00     0.016 A 
ATOM     14  C   UNK     0      -6.869  -1.761   3.954  1.00  0.00     0.002 A 
ENDROOT
BRANCH   2  15
ATOM     15  C   UNK     0      -7.598   3.035   2.126  1.00  0.00     0.099 C 
ATOM     16  C   UNK     0      -8.438   3.877   2.767  1.00  0.00     0.047 C 
BRANCH  16  17
ATOM     17  C   UNK     0      -9.636   4.526   2.214  1.00  0.00     0.031 A 
ATOM     18  N   UNK     0      -9.647   5.005   0.885  1.00  0.00    -0.382 N 
ATOM     19  C   UNK     0     -10.884   5.486   0.233  1.00  0.00     0.149 A 
ATOM     20  C   UNK     0      -8.499   5.047  -0.016  1.00  0.00     0.150 C 
ATOM     21  C   UNK     0     -12.057   5.524   1.161  1.00  0.00    -0.007 A 
ATOM     22  C   UNK     0     -11.991   5.122   2.435  1.00  0.00    -0.000 A 
ATOM     23  C   UNK     0     -10.759   4.586   2.962  1.00  0.00     0.029 A 
ENDBRANCH  16  17
ENDBRANCH   2  15
BRANCH  11  24
ATOM     24  S   UNK     0      -3.523   6.628   1.342  1.00  0.00    -0.138 SA
ATOM     25  C   UNK     0      -2.378   7.410   2.501  1.00  0.00     0.095 C 
ENDBRANCH  11  24
TORSDOF 3
ENDMDL
MODEL 7
REMARK VINA RESULT:      -7.1      3.459      6.877
REMARK  3 active torsions:
REMARK  status: ('A' for Active; 'I' for Inactive)
REMARK    1  A    between atoms: S_2  and  C_21 
REMARK    2  A    between atoms: N_4  and  C_11 
REMARK    3  A    between atoms: C_5  and  C_7 
ROOT
ATOM      1  S   UNK     0      -6.965  -0.280   3.419  1.00  0.00    -0.086 SA
ATOM      2  N   UNK     0      -4.954   1.983   2.361  1.00  0.00    -0.323 N 
ATOM      3  C   UNK     0      -6.362   2.252   2.585  1.00  0.00     0.038 A 
ATOM      4  C   UNK     0      -4.414   0.675   2.716  1.00  0.00     0.056 A 
ATOM      5  C   UNK     0      -7.283   1.372   3.052  1.00  0.00     0.029 A 
ATOM      6  C   UNK     0      -5.227  -0.387   3.157  1.00  0.00     0.033 A 
ATOM      7  C   UNK     0      -6.883   3.653   2.211  1.00  0.00     0.105 A 
ATOM      8  C   UNK     0      -3.030   0.394   2.689  1.00  0.00     0.031 A 
ATOM      9  C   UNK     0      -8.677   1.717   3.277  1.00  0.00     0.022 A 
ATOM     10  C   UNK     0      -4.684  -1.653   3.469  1.00  0.00     0.021 A 
ATOM     11  C   UNK     0      -8.371   3.900   2.411  1.00  0.00    -0.017 A 
ATOM     12  C   UNK     0      -2.494  -0.872   2.968  1.00  0.00     0.002 A 
ATOM     13  C   UNK     0      -9.242   2.885   2.988  1.00  0.00     0.016 A 
ATOM     14  C   UNK     0      -3.326  -1.905   3.355  1.00  0.00     0.002 A 
ENDROOT
BRANCH   2  15
ATOM     15  C   UNK     0      -4.088   3.010   1.892  1.00  0.00     0.099 C 
ATOM     16  C   UNK     0      -3.258   3.869   2.524  1.00  0.00     0.047 C 
BRANCH  16  17
ATOM     17  C   UNK     0      -2.443   4.928   1.910  1.00  0.00     0.031 A 
ATOM     18  N   UNK     0      -2.590   6.274   2.310  1.00  0.00    -0.382 N 
ATOM     19  C   UNK     0      -1.663   7.335   1.860  1.00  0.00     0.149 A 
ATOM     20  C   UNK     0      -3.606   6.786   3.225  1.00  0.00     0.150 C 
ATOM     21  C   UNK     0      -0.660   6.848   0.861  1.00  0.00    -0.007 A 
ATOM     22  C   UNK     0      -0.593   5.574   0.457  1.00  0.00    -0.000 A 
ATOM     23  C   UNK     0      -1.488   4.590   1.017  1.00  0.00     0.029 A 
ENDBRANCH  16  17
ENDBRANCH   2  15
BRANCH  11  24
ATOM     24  S   UNK     0      -9.000   5.459   1.950  1.00  0.00    -0.138 SA
ATOM     25  C   UNK     0      -9.281   5.357   0.168  1.00  0.00     0.095 C 
ENDBRANCH  11  24
TORSDOF 3
ENDMDL
MODEL 8
REMARK VINA RESULT:      -7.0      9.707     13.410
REMARK  3 active torsions:
REMARK  status: ('A' for Active; 'I' for Inactive)
REMARK    1  A    between atoms: S_2  and  C_21 
REMARK    2  A    between atoms: N_4  and  C_11 
REMARK    3  A    between atoms: C_5  and  C_7 
ROOT
ATOM      1  S   UNK     0      -0.309   0.393   3.091  1.00  0.00    -0.086 SA
ATOM      2  N   UNK     0       2.566   0.735   4.470  1.00  0.00    -0.323 N 
ATOM      3  C   UNK     0       1.915  -0.557   4.365  1.00  0.00     0.038 A 
ATOM      4  C   UNK     0       1.944   1.899   3.848  1.00  0.00     0.056 A 
ATOM      5  C   UNK     0       0.717  -0.806   3.781  1.00  0.00     0.029 A 
ATOM      6  C   UNK     0       0.670   1.848   3.250  1.00  0.00     0.033 A 
ATOM      7  C   UNK     0       2.619  -1.760   5.023  1.00  0.00     0.105 A 
ATOM      8  C   UNK     0       2.595   3.150   3.758  1.00  0.00     0.031 A 
ATOM      9  C   UNK     0       0.132  -2.134   3.689  1.00  0.00     0.022 A 
ATOM     10  C   UNK     0       0.076   2.995   2.677  1.00  0.00     0.021 A 
ATOM     11  C   UNK     0       1.897  -3.096   4.941  1.00  0.00    -0.017 A 
ATOM     12  C   UNK     0       1.992   4.296   3.218  1.00  0.00     0.002 A 
ATOM     13  C   UNK     0       0.639  -3.242   4.221  1.00  0.00     0.016 A 
ATOM     14  C   UNK     0       0.722   4.221   2.680  1.00  0.00     0.002 A 
ENDROOT
BRANCH   2  15
ATOM     15  C   UNK     0       3.843   0.853   5.087  1.00  0.00     0.099 C 
ATOM     16  C   UNK     0       5.099   0.613   4.648  1.00  0.00     0.047 C 
BRANCH  16  17
ATOM     17  C   UNK     0       6.345   0.734   5.419  1.00  0.00     0.031 A 
ATOM     18  N   UNK     0       7.365   1.619   5.005  1.00  0.00    -0.382 N 
ATOM     19  C   UNK     0       8.544   1.911   5.850  1.00  0.00     0.149 A 
ATOM     20  C   UNK     0       7.382   2.378   3.758  1.00  0.00     0.150 C 
ATOM     21  C   UNK     0       8.586   1.087   7.098  1.00  0.00    -0.007 A 
ATOM     22  C   UNK     0       7.630   0.210   7.425  1.00  0.00    -0.000 A 
ATOM     23  C   UNK     0       6.472   0.053   6.578  1.00  0.00     0.029 A 
ENDBRANCH  16  17
ENDBRANCH   2  15
BRANCH  11  24
ATOM     24  S   UNK     0       2.644  -4.466   5.719  1.00  0.00    -0.138 SA
ATOM     25  C   UNK     0       4.367  -4.448   5.175  1.00  0.00     0.095 C 
ENDBRANCH  11  24
TORSDOF 3
ENDMDL
MODEL 9
REMARK VINA RESULT:      -7.0     10.922     14.509
REMARK  3 active torsions:
REMARK  status: ('A' for Active; 'I' for Inactive)
REMARK    1  A    between atoms: S_2  and  C_21 
REMARK    2  A    between atoms: N_4  and  C_11 
REMARK    3  A    between atoms: C_5  and  C_7 
ROOT
ATOM      1  S   UNK     0       5.849  -1.989   6.551  1.00  0.00    -0.086 SA
ATOM      2  N   UNK     0       4.286   0.275   4.902  1.00  0.00    -0.323 N 
ATOM      3  C   UNK     0       3.794  -1.087   4.990  1.00  0.00     0.038 A 
ATOM      4  C   UNK     0       5.472   0.654   5.662  1.00  0.00     0.056 A 
ATOM      5  C   UNK     0       4.368  -2.104   5.680  1.00  0.00     0.029 A 
ATOM      6  C   UNK     0       6.238  -0.279   6.387  1.00  0.00     0.033 A 
ATOM      7  C   UNK     0       2.528  -1.436   4.183  1.00  0.00     0.105 A 
ATOM      8  C   UNK     0       5.911   1.993   5.765  1.00  0.00     0.031 A 
ATOM      9  C   UNK     0       3.806  -3.444   5.745  1.00  0.00     0.022 A 
ATOM     10  C   UNK     0       7.399   0.107   7.094  1.00  0.00     0.021 A 
ATOM     11  C   UNK     0       2.056  -2.880   4.253  1.00  0.00    -0.017 A 
ATOM     12  C   UNK     0       7.081   2.372   6.440  1.00  0.00     0.002 A 
ATOM     13  C   UNK     0       2.729  -3.864   5.090  1.00  0.00     0.016 A 
ATOM     14  C   UNK     0       7.834   1.423   7.104  1.00  0.00     0.002 A 
ENDROOT
BRANCH   2  15
ATOM     15  C   UNK     0       3.568   1.257   4.163  1.00  0.00     0.099 C 
ATOM     16  C   UNK     0       3.684   1.718   2.898  1.00  0.00     0.047 C 
BRANCH  16  17
ATOM     17  C   UNK     0       2.893   2.786   2.269  1.00  0.00     0.031 A 
ATOM     18  N   UNK     0       2.612   2.754   0.885  1.00  0.00    -0.382 N 
ATOM     19  C   UNK     0       1.666   3.698   0.253  1.00  0.00     0.149 A 
ATOM     20  C   UNK     0       3.153   1.795  -0.074  1.00  0.00     0.150 C 
ATOM     21  C   UNK     0       1.157   4.739   1.201  1.00  0.00    -0.007 A 
ATOM     22  C   UNK     0       1.498   4.774   2.494  1.00  0.00    -0.000 A 
ATOM     23  C   UNK     0       2.363   3.758   3.043  1.00  0.00     0.029 A 
ENDBRANCH  16  17
ENDBRANCH   2  15
BRANCH  11  24
ATOM     24  S   UNK     0       0.655  -3.318   3.311  1.00  0.00    -0.138 SA
ATOM     25  C   UNK     0       1.275  -3.629   1.643  1.00  0.00     0.095 C 
ENDBRANCH  11  24
TORSDOF 3
ENDMDL
